# vtk DataFile Version 3.0
#This file was generated by the deal.II library on 2021/11/30 at 14:48:24
ASCII
DATASET UNSTRUCTURED_GRID

POINTS 216 double
0 0 0
0.333333 0 0
0 0.333333 0
0.333333 0.333333 0
0 0 0.333333
0.333333 0 0.333333
0 0.333333 0.333333
0.333333 0.333333 0.333333
0.333333 0 0
0.666667 0 0
0.333333 0.333333 0
0.666667 0.333333 0
0.333333 0 0.333333
0.666667 0 0.333333
0.333333 0.333333 0.333333
0.666667 0.333333 0.333333
0.666667 0 0
1 0 0
0.666667 0.333333 0
1 0.333333 0
0.666667 0 0.333333
1 0 0.333333
0.666667 0.333333 0.333333
1 0.333333 0.333333
0 0.333333 0
0.333333 0.333333 0
0 0.666667 0
0.333333 0.666667 0
0 0.333333 0.333333
0.333333 0.333333 0.333333
0 0.666667 0.333333
0.333333 0.666667 0.333333
0.333333 0.333333 0
0.666667 0.333333 0
0.333333 0.666667 0
0.666667 0.666667 0
0.333333 0.333333 0.333333
0.666667 0.333333 0.333333
0.333333 0.666667 0.333333
0.666667 0.666667 0.333333
0.666667 0.333333 0
1 0.333333 0
0.666667 0.666667 0
1 0.666667 0
0.666667 0.333333 0.333333
1 0.333333 0.333333
0.666667 0.666667 0.333333
1 0.666667 0.333333
0 0.666667 0
0.333333 0.666667 0
0 1 0
0.333333 1 0
0 0.666667 0.333333
0.333333 0.666667 0.333333
0 1 0.333333
0.333333 1 0.333333
0.333333 0.666667 0
0.666667 0.666667 0
0.333333 1 0
0.666667 1 0
0.333333 0.666667 0.333333
0.666667 0.666667 0.333333
0.333333 1 0.333333
0.666667 1 0.333333
0.666667 0.666667 0
1 0.666667 0
0.666667 1 0
1 1 0
0.666667 0.666667 0.333333
1 0.666667 0.333333
0.666667 1 0.333333
1 1 0.333333
0 0 0.333333
0.333333 0 0.333333
0 0.333333 0.333333
0.333333 0.333333 0.333333
0 0 0.666667
0.333333 0 0.666667
0 0.333333 0.666667
0.333333 0.333333 0.666667
0.333333 0 0.333333
0.666667 0 0.333333
0.333333 0.333333 0.333333
0.666667 0.333333 0.333333
0.333333 0 0.666667
0.666667 0 0.666667
0.333333 0.333333 0.666667
0.666667 0.333333 0.666667
0.666667 0 0.333333
1 0 0.333333
0.666667 0.333333 0.333333
1 0.333333 0.333333
0.666667 0 0.666667
1 0 0.666667
0.666667 0.333333 0.666667
1 0.333333 0.666667
0 0.333333 0.333333
0.333333 0.333333 0.333333
0 0.666667 0.333333
0.333333 0.666667 0.333333
0 0.333333 0.666667
0.333333 0.333333 0.666667
0 0.666667 0.666667
0.333333 0.666667 0.666667
0.333333 0.333333 0.333333
0.666667 0.333333 0.333333
0.333333 0.666667 0.333333
0.666667 0.666667 0.333333
0.333333 0.333333 0.666667
0.666667 0.333333 0.666667
0.333333 0.666667 0.666667
0.666667 0.666667 0.666667
0.666667 0.333333 0.333333
1 0.333333 0.333333
0.666667 0.666667 0.333333
1 0.666667 0.333333
0.666667 0.333333 0.666667
1 0.333333 0.666667
0.666667 0.666667 0.666667
1 0.666667 0.666667
0 0.666667 0.333333
0.333333 0.666667 0.333333
0 1 0.333333
0.333333 1 0.333333
0 0.666667 0.666667
0.333333 0.666667 0.666667
0 1 0.666667
0.333333 1 0.666667
0.333333 0.666667 0.333333
0.666667 0.666667 0.333333
0.333333 1 0.333333
0.666667 1 0.333333
0.333333 0.666667 0.666667
0.666667 0.666667 0.666667
0.333333 1 0.666667
0.666667 1 0.666667
0.666667 0.666667 0.333333
1 0.666667 0.333333
0.666667 1 0.333333
1 1 0.333333
0.666667 0.666667 0.666667
1 0.666667 0.666667
0.666667 1 0.666667
1 1 0.666667
0 0 0.666667
0.333333 0 0.666667
0 0.333333 0.666667
0.333333 0.333333 0.666667
0 0 1
0.333333 0 1
0 0.333333 1
0.333333 0.333333 1
0.333333 0 0.666667
0.666667 0 0.666667
0.333333 0.333333 0.666667
0.666667 0.333333 0.666667
0.333333 0 1
0.666667 0 1
0.333333 0.333333 1
0.666667 0.333333 1
0.666667 0 0.666667
1 0 0.666667
0.666667 0.333333 0.666667
1 0.333333 0.666667
0.666667 0 1
1 0 1
0.666667 0.333333 1
1 0.333333 1
0 0.333333 0.666667
0.333333 0.333333 0.666667
0 0.666667 0.666667
0.333333 0.666667 0.666667
0 0.333333 1
0.333333 0.333333 1
0 0.666667 1
0.333333 0.666667 1
0.333333 0.333333 0.666667
0.666667 0.333333 0.666667
0.333333 0.666667 0.666667
0.666667 0.666667 0.666667
0.333333 0.333333 1
0.666667 0.333333 1
0.333333 0.666667 1
0.666667 0.666667 1
0.666667 0.333333 0.666667
1 0.333333 0.666667
0.666667 0.666667 0.666667
1 0.666667 0.666667
0.666667 0.333333 1
1 0.333333 1
0.666667 0.666667 1
1 0.666667 1
0 0.666667 0.666667
0.333333 0.666667 0.666667
0 1 0.666667
0.333333 1 0.666667
0 0.666667 1
0.333333 0.666667 1
0 1 1
0.333333 1 1
0.333333 0.666667 0.666667
0.666667 0.666667 0.666667
0.333333 1 0.666667
0.666667 1 0.666667
0.333333 0.666667 1
0.666667 0.666667 1
0.333333 1 1
0.666667 1 1
0.666667 0.666667 0.666667
1 0.666667 0.666667
0.666667 1 0.666667
1 1 0.666667
0.666667 0.666667 1
1 0.666667 1
0.666667 1 1
1 1 1

CELLS 27 243
8	0	1	3	2	4	5	7	6
8	8	9	11	10	12	13	15	14
8	16	17	19	18	20	21	23	22
8	24	25	27	26	28	29	31	30
8	32	33	35	34	36	37	39	38
8	40	41	43	42	44	45	47	46
8	48	49	51	50	52	53	55	54
8	56	57	59	58	60	61	63	62
8	64	65	67	66	68	69	71	70
8	72	73	75	74	76	77	79	78
8	80	81	83	82	84	85	87	86
8	88	89	91	90	92	93	95	94
8	96	97	99	98	100	101	103	102
8	104	105	107	106	108	109	111	110
8	112	113	115	114	116	117	119	118
8	120	121	123	122	124	125	127	126
8	128	129	131	130	132	133	135	134
8	136	137	139	138	140	141	143	142
8	144	145	147	146	148	149	151	150
8	152	153	155	154	156	157	159	158
8	160	161	163	162	164	165	167	166
8	168	169	171	170	172	173	175	174
8	176	177	179	178	180	181	183	182
8	184	185	187	186	188	189	191	190
8	192	193	195	194	196	197	199	198
8	200	201	203	202	204	205	207	206
8	208	209	211	210	212	213	215	214

CELL_TYPES 27
 12 12 12 12 12 12 12 12 12 12 12 12 12 12 12 12 12 12 12 12 12 12 12 12 12 12 12
POINT_DATA 216
VECTORS u double
0 0 0
0.00528356 0.0012835 0.0012835
0 0 0
0.00374247 0.000917415 0.00179095
0 0 0
0.00374247 0.00179095 0.000917415
0 0 0
0.00322962 0.00120894 0.00120894
0.00528356 0.0012835 0.0012835
0.00374481 0.00237071 0.00237071
0.00374247 0.000917415 0.00179095
0.00571474 0.00144886 0.00171844
0.00374247 0.00179095 0.000917415
0.00571474 0.00171844 0.00144886
0.00322962 0.00120894 0.00120894
0.00731439 0.00110044 0.00110044
0.00374481 0.00237071 0.00237071
0.0059786 0.0011308 0.0011308
0.00571474 0.00144886 0.00171844
0.00750634 2.39785e-05 0.000931686
0.00571474 0.00171844 0.00144886
0.00750634 0.000931686 2.39785e-05
0.00731439 0.00110044 0.00110044
0.0084567 0.000397693 0.000397693
0 0 0
0.00374247 0.000917415 0.00179095
0 0 0
0.00374247 -0.000917415 0.00179095
0 0 0
0.00322962 0.00120894 0.00120894
0 0 0
0.00322962 -0.00120894 0.00120894
0.00374247 0.000917415 0.00179095
0.00571474 0.00144886 0.00171844
0.00374247 -0.000917415 0.00179095
0.00571474 -0.00144886 0.00171844
0.00322962 0.00120894 0.00120894
0.00731439 0.00110044 0.00110044
0.00322962 -0.00120894 0.00120894
0.00731439 -0.00110044 0.00110044
0.00571474 0.00144886 0.00171844
0.00750634 2.39785e-05 0.000931686
0.00571474 -0.00144886 0.00171844
0.00750634 -2.39785e-05 0.000931686
0.00731439 0.00110044 0.00110044
0.0084567 0.000397693 0.000397693
0.00731439 -0.00110044 0.00110044
0.0084567 -0.000397693 0.000397693
0 0 0
0.00374247 -0.000917415 0.00179095
0 0 0
0.00528356 -0.0012835 0.0012835
0 0 0
0.00322962 -0.00120894 0.00120894
0 0 0
0.00374247 -0.00179095 0.000917415
0.00374247 -0.000917415 0.00179095
0.00571474 -0.00144886 0.00171844
0.00528356 -0.0012835 0.0012835
0.00374481 -0.00237071 0.00237071
0.00322962 -0.00120894 0.00120894
0.00731439 -0.00110044 0.00110044
0.00374247 -0.00179095 0.000917415
0.00571474 -0.00171844 0.00144886
0.00571474 -0.00144886 0.00171844
0.00750634 -2.39785e-05 0.000931686
0.00374481 -0.00237071 0.00237071
0.0059786 -0.0011308 0.0011308
0.00731439 -0.00110044 0.00110044
0.0084567 -0.000397693 0.000397693
0.00571474 -0.00171844 0.00144886
0.00750634 -0.000931686 2.39785e-05
0 0 0
0.00374247 0.00179095 0.000917415
0 0 0
0.00322962 0.00120894 0.00120894
0 0 0
0.00374247 0.00179095 -0.000917415
0 0 0
0.00322962 0.00120894 -0.00120894
0.00374247 0.00179095 0.000917415
0.00571474 0.00171844 0.00144886
0.00322962 0.00120894 0.00120894
0.00731439 0.00110044 0.00110044
0.00374247 0.00179095 -0.000917415
0.00571474 0.00171844 -0.00144886
0.00322962 0.00120894 -0.00120894
0.00731439 0.00110044 -0.00110044
0.00571474 0.00171844 0.00144886
0.00750634 0.000931686 2.39785e-05
0.00731439 0.00110044 0.00110044
0.0084567 0.000397693 0.000397693
0.00571474 0.00171844 -0.00144886
0.00750634 0.000931686 -2.39785e-05
0.00731439 0.00110044 -0.00110044
0.0084567 0.000397693 -0.000397693
0 0 0
0.00322962 0.00120894 0.00120894
0 0 0
0.00322962 -0.00120894 0.00120894
0 0 0
0.00322962 0.00120894 -0.00120894
0 0 0
0.00322962 -0.00120894 -0.00120894
0.00322962 0.00120894 0.00120894
0.00731439 0.00110044 0.00110044
0.00322962 -0.00120894 0.00120894
0.00731439 -0.00110044 0.00110044
0.00322962 0.00120894 -0.00120894
0.00731439 0.00110044 -0.00110044
0.00322962 -0.00120894 -0.00120894
0.00731439 -0.00110044 -0.00110044
0.00731439 0.00110044 0.00110044
0.0084567 0.000397693 0.000397693
0.00731439 -0.00110044 0.00110044
0.0084567 -0.000397693 0.000397693
0.00731439 0.00110044 -0.00110044
0.0084567 0.000397693 -0.000397693
0.00731439 -0.00110044 -0.00110044
0.0084567 -0.000397693 -0.000397693
0 0 0
0.00322962 -0.00120894 0.00120894
0 0 0
0.00374247 -0.00179095 0.000917415
0 0 0
0.00322962 -0.00120894 -0.00120894
0 0 0
0.00374247 -0.00179095 -0.000917415
0.00322962 -0.00120894 0.00120894
0.00731439 -0.00110044 0.00110044
0.00374247 -0.00179095 0.000917415
0.00571474 -0.00171844 0.00144886
0.00322962 -0.00120894 -0.00120894
0.00731439 -0.00110044 -0.00110044
0.00374247 -0.00179095 -0.000917415
0.00571474 -0.00171844 -0.00144886
0.00731439 -0.00110044 0.00110044
0.0084567 -0.000397693 0.000397693
0.00571474 -0.00171844 0.00144886
0.00750634 -0.000931686 2.39785e-05
0.00731439 -0.00110044 -0.00110044
0.0084567 -0.000397693 -0.000397693
0.00571474 -0.00171844 -0.00144886
0.00750634 -0.000931686 -2.39785e-05
0 0 0
0.00374247 0.00179095 -0.000917415
0 0 0
0.00322962 0.00120894 -0.00120894
0 0 0
0.00528356 0.0012835 -0.0012835
0 0 0
0.00374247 0.000917415 -0.00179095
0.00374247 0.00179095 -0.000917415
0.00571474 0.00171844 -0.00144886
0.00322962 0.00120894 -0.00120894
0.00731439 0.00110044 -0.00110044
0.00528356 0.0012835 -0.0012835
0.00374481 0.00237071 -0.00237071
0.00374247 0.000917415 -0.00179095
0.00571474 0.00144886 -0.00171844
0.00571474 0.00171844 -0.00144886
0.00750634 0.000931686 -2.39785e-05
0.00731439 0.00110044 -0.00110044
0.0084567 0.000397693 -0.000397693
0.00374481 0.00237071 -0.00237071
0.0059786 0.0011308 -0.0011308
0.00571474 0.00144886 -0.00171844
0.00750634 2.39785e-05 -0.000931686
0 0 0
0.00322962 0.00120894 -0.00120894
0 0 0
0.00322962 -0.00120894 -0.00120894
0 0 0
0.00374247 0.000917415 -0.00179095
0 0 0
0.00374247 -0.000917415 -0.00179095
0.00322962 0.00120894 -0.00120894
0.00731439 0.00110044 -0.00110044
0.00322962 -0.00120894 -0.00120894
0.00731439 -0.00110044 -0.00110044
0.00374247 0.000917415 -0.00179095
0.00571474 0.00144886 -0.00171844
0.00374247 -0.000917415 -0.00179095
0.00571474 -0.00144886 -0.00171844
0.00731439 0.00110044 -0.00110044
0.0084567 0.000397693 -0.000397693
0.00731439 -0.00110044 -0.00110044
0.0084567 -0.000397693 -0.000397693
0.00571474 0.00144886 -0.00171844
0.00750634 2.39785e-05 -0.000931686
0.00571474 -0.00144886 -0.00171844
0.00750634 -2.39785e-05 -0.000931686
0 0 0
0.00322962 -0.00120894 -0.00120894
0 0 0
0.00374247 -0.00179095 -0.000917415
0 0 0
0.00374247 -0.000917415 -0.00179095
0 0 0
0.00528356 -0.0012835 -0.0012835
0.00322962 -0.00120894 -0.00120894
0.00731439 -0.00110044 -0.00110044
0.00374247 -0.00179095 -0.000917415
0.00571474 -0.00171844 -0.00144886
0.00374247 -0.000917415 -0.00179095
0.00571474 -0.00144886 -0.00171844
0.00528356 -0.0012835 -0.0012835
0.00374481 -0.00237071 -0.00237071
0.00731439 -0.00110044 -0.00110044
0.0084567 -0.000397693 -0.000397693
0.00571474 -0.00171844 -0.00144886
0.00750634 -0.000931686 -2.39785e-05
0.00571474 -0.00144886 -0.00171844
0.00750634 -2.39785e-05 -0.000931686
0.00374481 -0.00237071 -0.00237071
0.0059786 -0.0011308 -0.0011308
