# vtk DataFile Version 3.0
#This file was generated by the deal.II library on 2024/12/6 at 17:35:38
ASCII
DATASET UNSTRUCTURED_GRID

POINTS 3200 double
0 0 0
0.05 0 0
0 0.05 0
0.05 0.05 0
0 0 0.1
0.05 0 0.1
0 0.05 0.1
0.05 0.05 0.1
0.05 0 0
0.1 0 0
0.05 0.05 0
0.1 0.05 0
0.05 0 0.1
0.1 0 0.1
0.05 0.05 0.1
0.1 0.05 0.1
0.1 0 0
0.15 0 0
0.1 0.05 0
0.15 0.05 0
0.1 0 0.1
0.15 0 0.1
0.1 0.05 0.1
0.15 0.05 0.1
0.15 0 0
0.2 0 0
0.15 0.05 0
0.2 0.05 0
0.15 0 0.1
0.2 0 0.1
0.15 0.05 0.1
0.2 0.05 0.1
0.2 0 0
0.25 0 0
0.2 0.05 0
0.25 0.05 0
0.2 0 0.1
0.25 0 0.1
0.2 0.05 0.1
0.25 0.05 0.1
0.25 0 0
0.3 0 0
0.25 0.05 0
0.3 0.05 0
0.25 0 0.1
0.3 0 0.1
0.25 0.05 0.1
0.3 0.05 0.1
0.3 0 0
0.35 0 0
0.3 0.05 0
0.35 0.05 0
0.3 0 0.1
0.35 0 0.1
0.3 0.05 0.1
0.35 0.05 0.1
0.35 0 0
0.4 0 0
0.35 0.05 0
0.4 0.05 0
0.35 0 0.1
0.4 0 0.1
0.35 0.05 0.1
0.4 0.05 0.1
0.4 0 0
0.45 0 0
0.4 0.05 0
0.45 0.05 0
0.4 0 0.1
0.45 0 0.1
0.4 0.05 0.1
0.45 0.05 0.1
0.45 0 0
0.5 0 0
0.45 0.05 0
0.5 0.05 0
0.45 0 0.1
0.5 0 0.1
0.45 0.05 0.1
0.5 0.05 0.1
0.5 0 0
0.55 0 0
0.5 0.05 0
0.55 0.05 0
0.5 0 0.1
0.55 0 0.1
0.5 0.05 0.1
0.55 0.05 0.1
0.55 0 0
0.6 0 0
0.55 0.05 0
0.6 0.05 0
0.55 0 0.1
0.6 0 0.1
0.55 0.05 0.1
0.6 0.05 0.1
0.6 0 0
0.65 0 0
0.6 0.05 0
0.65 0.05 0
0.6 0 0.1
0.65 0 0.1
0.6 0.05 0.1
0.65 0.05 0.1
0.65 0 0
0.7 0 0
0.65 0.05 0
0.7 0.05 0
0.65 0 0.1
0.7 0 0.1
0.65 0.05 0.1
0.7 0.05 0.1
0.7 0 0
0.75 0 0
0.7 0.05 0
0.75 0.05 0
0.7 0 0.1
0.75 0 0.1
0.7 0.05 0.1
0.75 0.05 0.1
0.75 0 0
0.8 0 0
0.75 0.05 0
0.8 0.05 0
0.75 0 0.1
0.8 0 0.1
0.75 0.05 0.1
0.8 0.05 0.1
0.8 0 0
0.85 0 0
0.8 0.05 0
0.85 0.05 0
0.8 0 0.1
0.85 0 0.1
0.8 0.05 0.1
0.85 0.05 0.1
0.85 0 0
0.9 0 0
0.85 0.05 0
0.9 0.05 0
0.85 0 0.1
0.9 0 0.1
0.85 0.05 0.1
0.9 0.05 0.1
0.9 0 0
0.95 0 0
0.9 0.05 0
0.95 0.05 0
0.9 0 0.1
0.95 0 0.1
0.9 0.05 0.1
0.95 0.05 0.1
0.95 0 0
1 0 0
0.95 0.05 0
1 0.05 0
0.95 0 0.1
1 0 0.1
0.95 0.05 0.1
1 0.05 0.1
0 0.05 0
0.05 0.05 0
0 0.1 0
0.05 0.1 0
0 0.05 0.1
0.05 0.05 0.1
0 0.1 0.1
0.05 0.1 0.1
0.05 0.05 0
0.1 0.05 0
0.05 0.1 0
0.1 0.1 0
0.05 0.05 0.1
0.1 0.05 0.1
0.05 0.1 0.1
0.1 0.1 0.1
0.1 0.05 0
0.15 0.05 0
0.1 0.1 0
0.15 0.1 0
0.1 0.05 0.1
0.15 0.05 0.1
0.1 0.1 0.1
0.15 0.1 0.1
0.15 0.05 0
0.2 0.05 0
0.15 0.1 0
0.2 0.1 0
0.15 0.05 0.1
0.2 0.05 0.1
0.15 0.1 0.1
0.2 0.1 0.1
0.2 0.05 0
0.25 0.05 0
0.2 0.1 0
0.25 0.1 0
0.2 0.05 0.1
0.25 0.05 0.1
0.2 0.1 0.1
0.25 0.1 0.1
0.25 0.05 0
0.3 0.05 0
0.25 0.1 0
0.3 0.1 0
0.25 0.05 0.1
0.3 0.05 0.1
0.25 0.1 0.1
0.3 0.1 0.1
0.3 0.05 0
0.35 0.05 0
0.3 0.1 0
0.35 0.1 0
0.3 0.05 0.1
0.35 0.05 0.1
0.3 0.1 0.1
0.35 0.1 0.1
0.35 0.05 0
0.4 0.05 0
0.35 0.1 0
0.4 0.1 0
0.35 0.05 0.1
0.4 0.05 0.1
0.35 0.1 0.1
0.4 0.1 0.1
0.4 0.05 0
0.45 0.05 0
0.4 0.1 0
0.45 0.1 0
0.4 0.05 0.1
0.45 0.05 0.1
0.4 0.1 0.1
0.45 0.1 0.1
0.45 0.05 0
0.5 0.05 0
0.45 0.1 0
0.5 0.1 0
0.45 0.05 0.1
0.5 0.05 0.1
0.45 0.1 0.1
0.5 0.1 0.1
0.5 0.05 0
0.55 0.05 0
0.5 0.1 0
0.55 0.1 0
0.5 0.05 0.1
0.55 0.05 0.1
0.5 0.1 0.1
0.55 0.1 0.1
0.55 0.05 0
0.6 0.05 0
0.55 0.1 0
0.6 0.1 0
0.55 0.05 0.1
0.6 0.05 0.1
0.55 0.1 0.1
0.6 0.1 0.1
0.6 0.05 0
0.65 0.05 0
0.6 0.1 0
0.65 0.1 0
0.6 0.05 0.1
0.65 0.05 0.1
0.6 0.1 0.1
0.65 0.1 0.1
0.65 0.05 0
0.7 0.05 0
0.65 0.1 0
0.7 0.1 0
0.65 0.05 0.1
0.7 0.05 0.1
0.65 0.1 0.1
0.7 0.1 0.1
0.7 0.05 0
0.75 0.05 0
0.7 0.1 0
0.75 0.1 0
0.7 0.05 0.1
0.75 0.05 0.1
0.7 0.1 0.1
0.75 0.1 0.1
0.75 0.05 0
0.8 0.05 0
0.75 0.1 0
0.8 0.1 0
0.75 0.05 0.1
0.8 0.05 0.1
0.75 0.1 0.1
0.8 0.1 0.1
0.8 0.05 0
0.85 0.05 0
0.8 0.1 0
0.85 0.1 0
0.8 0.05 0.1
0.85 0.05 0.1
0.8 0.1 0.1
0.85 0.1 0.1
0.85 0.05 0
0.9 0.05 0
0.85 0.1 0
0.9 0.1 0
0.85 0.05 0.1
0.9 0.05 0.1
0.85 0.1 0.1
0.9 0.1 0.1
0.9 0.05 0
0.95 0.05 0
0.9 0.1 0
0.95 0.1 0
0.9 0.05 0.1
0.95 0.05 0.1
0.9 0.1 0.1
0.95 0.1 0.1
0.95 0.05 0
1 0.05 0
0.95 0.1 0
1 0.1 0
0.95 0.05 0.1
1 0.05 0.1
0.95 0.1 0.1
1 0.1 0.1
0 0.1 0
0.05 0.1 0
0 0.15 0
0.05 0.15 0
0 0.1 0.1
0.05 0.1 0.1
0 0.15 0.1
0.05 0.15 0.1
0.05 0.1 0
0.1 0.1 0
0.05 0.15 0
0.1 0.15 0
0.05 0.1 0.1
0.1 0.1 0.1
0.05 0.15 0.1
0.1 0.15 0.1
0.1 0.1 0
0.15 0.1 0
0.1 0.15 0
0.15 0.15 0
0.1 0.1 0.1
0.15 0.1 0.1
0.1 0.15 0.1
0.15 0.15 0.1
0.15 0.1 0
0.2 0.1 0
0.15 0.15 0
0.2 0.15 0
0.15 0.1 0.1
0.2 0.1 0.1
0.15 0.15 0.1
0.2 0.15 0.1
0.2 0.1 0
0.25 0.1 0
0.2 0.15 0
0.25 0.15 0
0.2 0.1 0.1
0.25 0.1 0.1
0.2 0.15 0.1
0.25 0.15 0.1
0.25 0.1 0
0.3 0.1 0
0.25 0.15 0
0.3 0.15 0
0.25 0.1 0.1
0.3 0.1 0.1
0.25 0.15 0.1
0.3 0.15 0.1
0.3 0.1 0
0.35 0.1 0
0.3 0.15 0
0.35 0.15 0
0.3 0.1 0.1
0.35 0.1 0.1
0.3 0.15 0.1
0.35 0.15 0.1
0.35 0.1 0
0.4 0.1 0
0.35 0.15 0
0.4 0.15 0
0.35 0.1 0.1
0.4 0.1 0.1
0.35 0.15 0.1
0.4 0.15 0.1
0.4 0.1 0
0.45 0.1 0
0.4 0.15 0
0.45 0.15 0
0.4 0.1 0.1
0.45 0.1 0.1
0.4 0.15 0.1
0.45 0.15 0.1
0.45 0.1 0
0.5 0.1 0
0.45 0.15 0
0.5 0.15 0
0.45 0.1 0.1
0.5 0.1 0.1
0.45 0.15 0.1
0.5 0.15 0.1
0.5 0.1 0
0.55 0.1 0
0.5 0.15 0
0.55 0.15 0
0.5 0.1 0.1
0.55 0.1 0.1
0.5 0.15 0.1
0.55 0.15 0.1
0.55 0.1 0
0.6 0.1 0
0.55 0.15 0
0.6 0.15 0
0.55 0.1 0.1
0.6 0.1 0.1
0.55 0.15 0.1
0.6 0.15 0.1
0.6 0.1 0
0.65 0.1 0
0.6 0.15 0
0.65 0.15 0
0.6 0.1 0.1
0.65 0.1 0.1
0.6 0.15 0.1
0.65 0.15 0.1
0.65 0.1 0
0.7 0.1 0
0.65 0.15 0
0.7 0.15 0
0.65 0.1 0.1
0.7 0.1 0.1
0.65 0.15 0.1
0.7 0.15 0.1
0.7 0.1 0
0.75 0.1 0
0.7 0.15 0
0.75 0.15 0
0.7 0.1 0.1
0.75 0.1 0.1
0.7 0.15 0.1
0.75 0.15 0.1
0.75 0.1 0
0.8 0.1 0
0.75 0.15 0
0.8 0.15 0
0.75 0.1 0.1
0.8 0.1 0.1
0.75 0.15 0.1
0.8 0.15 0.1
0.8 0.1 0
0.85 0.1 0
0.8 0.15 0
0.85 0.15 0
0.8 0.1 0.1
0.85 0.1 0.1
0.8 0.15 0.1
0.85 0.15 0.1
0.85 0.1 0
0.9 0.1 0
0.85 0.15 0
0.9 0.15 0
0.85 0.1 0.1
0.9 0.1 0.1
0.85 0.15 0.1
0.9 0.15 0.1
0.9 0.1 0
0.95 0.1 0
0.9 0.15 0
0.95 0.15 0
0.9 0.1 0.1
0.95 0.1 0.1
0.9 0.15 0.1
0.95 0.15 0.1
0.95 0.1 0
1 0.1 0
0.95 0.15 0
1 0.15 0
0.95 0.1 0.1
1 0.1 0.1
0.95 0.15 0.1
1 0.15 0.1
0 0.15 0
0.05 0.15 0
0 0.2 0
0.05 0.2 0
0 0.15 0.1
0.05 0.15 0.1
0 0.2 0.1
0.05 0.2 0.1
0.05 0.15 0
0.1 0.15 0
0.05 0.2 0
0.1 0.2 0
0.05 0.15 0.1
0.1 0.15 0.1
0.05 0.2 0.1
0.1 0.2 0.1
0.1 0.15 0
0.15 0.15 0
0.1 0.2 0
0.15 0.2 0
0.1 0.15 0.1
0.15 0.15 0.1
0.1 0.2 0.1
0.15 0.2 0.1
0.15 0.15 0
0.2 0.15 0
0.15 0.2 0
0.2 0.2 0
0.15 0.15 0.1
0.2 0.15 0.1
0.15 0.2 0.1
0.2 0.2 0.1
0.2 0.15 0
0.25 0.15 0
0.2 0.2 0
0.25 0.2 0
0.2 0.15 0.1
0.25 0.15 0.1
0.2 0.2 0.1
0.25 0.2 0.1
0.25 0.15 0
0.3 0.15 0
0.25 0.2 0
0.3 0.2 0
0.25 0.15 0.1
0.3 0.15 0.1
0.25 0.2 0.1
0.3 0.2 0.1
0.3 0.15 0
0.35 0.15 0
0.3 0.2 0
0.35 0.2 0
0.3 0.15 0.1
0.35 0.15 0.1
0.3 0.2 0.1
0.35 0.2 0.1
0.35 0.15 0
0.4 0.15 0
0.35 0.2 0
0.4 0.2 0
0.35 0.15 0.1
0.4 0.15 0.1
0.35 0.2 0.1
0.4 0.2 0.1
0.4 0.15 0
0.45 0.15 0
0.4 0.2 0
0.45 0.2 0
0.4 0.15 0.1
0.45 0.15 0.1
0.4 0.2 0.1
0.45 0.2 0.1
0.45 0.15 0
0.5 0.15 0
0.45 0.2 0
0.5 0.2 0
0.45 0.15 0.1
0.5 0.15 0.1
0.45 0.2 0.1
0.5 0.2 0.1
0.5 0.15 0
0.55 0.15 0
0.5 0.2 0
0.55 0.2 0
0.5 0.15 0.1
0.55 0.15 0.1
0.5 0.2 0.1
0.55 0.2 0.1
0.55 0.15 0
0.6 0.15 0
0.55 0.2 0
0.6 0.2 0
0.55 0.15 0.1
0.6 0.15 0.1
0.55 0.2 0.1
0.6 0.2 0.1
0.6 0.15 0
0.65 0.15 0
0.6 0.2 0
0.65 0.2 0
0.6 0.15 0.1
0.65 0.15 0.1
0.6 0.2 0.1
0.65 0.2 0.1
0.65 0.15 0
0.7 0.15 0
0.65 0.2 0
0.7 0.2 0
0.65 0.15 0.1
0.7 0.15 0.1
0.65 0.2 0.1
0.7 0.2 0.1
0.7 0.15 0
0.75 0.15 0
0.7 0.2 0
0.75 0.2 0
0.7 0.15 0.1
0.75 0.15 0.1
0.7 0.2 0.1
0.75 0.2 0.1
0.75 0.15 0
0.8 0.15 0
0.75 0.2 0
0.8 0.2 0
0.75 0.15 0.1
0.8 0.15 0.1
0.75 0.2 0.1
0.8 0.2 0.1
0.8 0.15 0
0.85 0.15 0
0.8 0.2 0
0.85 0.2 0
0.8 0.15 0.1
0.85 0.15 0.1
0.8 0.2 0.1
0.85 0.2 0.1
0.85 0.15 0
0.9 0.15 0
0.85 0.2 0
0.9 0.2 0
0.85 0.15 0.1
0.9 0.15 0.1
0.85 0.2 0.1
0.9 0.2 0.1
0.9 0.15 0
0.95 0.15 0
0.9 0.2 0
0.95 0.2 0
0.9 0.15 0.1
0.95 0.15 0.1
0.9 0.2 0.1
0.95 0.2 0.1
0.95 0.15 0
1 0.15 0
0.95 0.2 0
1 0.2 0
0.95 0.15 0.1
1 0.15 0.1
0.95 0.2 0.1
1 0.2 0.1
0 0.2 0
0.05 0.2 0
0 0.25 0
0.05 0.25 0
0 0.2 0.1
0.05 0.2 0.1
0 0.25 0.1
0.05 0.25 0.1
0.05 0.2 0
0.1 0.2 0
0.05 0.25 0
0.1 0.25 0
0.05 0.2 0.1
0.1 0.2 0.1
0.05 0.25 0.1
0.1 0.25 0.1
0.1 0.2 0
0.15 0.2 0
0.1 0.25 0
0.15 0.25 0
0.1 0.2 0.1
0.15 0.2 0.1
0.1 0.25 0.1
0.15 0.25 0.1
0.15 0.2 0
0.2 0.2 0
0.15 0.25 0
0.2 0.25 0
0.15 0.2 0.1
0.2 0.2 0.1
0.15 0.25 0.1
0.2 0.25 0.1
0.2 0.2 0
0.25 0.2 0
0.2 0.25 0
0.25 0.25 0
0.2 0.2 0.1
0.25 0.2 0.1
0.2 0.25 0.1
0.25 0.25 0.1
0.25 0.2 0
0.3 0.2 0
0.25 0.25 0
0.3 0.25 0
0.25 0.2 0.1
0.3 0.2 0.1
0.25 0.25 0.1
0.3 0.25 0.1
0.3 0.2 0
0.35 0.2 0
0.3 0.25 0
0.35 0.25 0
0.3 0.2 0.1
0.35 0.2 0.1
0.3 0.25 0.1
0.35 0.25 0.1
0.35 0.2 0
0.4 0.2 0
0.35 0.25 0
0.4 0.25 0
0.35 0.2 0.1
0.4 0.2 0.1
0.35 0.25 0.1
0.4 0.25 0.1
0.4 0.2 0
0.45 0.2 0
0.4 0.25 0
0.45 0.25 0
0.4 0.2 0.1
0.45 0.2 0.1
0.4 0.25 0.1
0.45 0.25 0.1
0.45 0.2 0
0.5 0.2 0
0.45 0.25 0
0.5 0.25 0
0.45 0.2 0.1
0.5 0.2 0.1
0.45 0.25 0.1
0.5 0.25 0.1
0.5 0.2 0
0.55 0.2 0
0.5 0.25 0
0.55 0.25 0
0.5 0.2 0.1
0.55 0.2 0.1
0.5 0.25 0.1
0.55 0.25 0.1
0.55 0.2 0
0.6 0.2 0
0.55 0.25 0
0.6 0.25 0
0.55 0.2 0.1
0.6 0.2 0.1
0.55 0.25 0.1
0.6 0.25 0.1
0.6 0.2 0
0.65 0.2 0
0.6 0.25 0
0.65 0.25 0
0.6 0.2 0.1
0.65 0.2 0.1
0.6 0.25 0.1
0.65 0.25 0.1
0.65 0.2 0
0.7 0.2 0
0.65 0.25 0
0.7 0.25 0
0.65 0.2 0.1
0.7 0.2 0.1
0.65 0.25 0.1
0.7 0.25 0.1
0.7 0.2 0
0.75 0.2 0
0.7 0.25 0
0.75 0.25 0
0.7 0.2 0.1
0.75 0.2 0.1
0.7 0.25 0.1
0.75 0.25 0.1
0.75 0.2 0
0.8 0.2 0
0.75 0.25 0
0.8 0.25 0
0.75 0.2 0.1
0.8 0.2 0.1
0.75 0.25 0.1
0.8 0.25 0.1
0.8 0.2 0
0.85 0.2 0
0.8 0.25 0
0.85 0.25 0
0.8 0.2 0.1
0.85 0.2 0.1
0.8 0.25 0.1
0.85 0.25 0.1
0.85 0.2 0
0.9 0.2 0
0.85 0.25 0
0.9 0.25 0
0.85 0.2 0.1
0.9 0.2 0.1
0.85 0.25 0.1
0.9 0.25 0.1
0.9 0.2 0
0.95 0.2 0
0.9 0.25 0
0.95 0.25 0
0.9 0.2 0.1
0.95 0.2 0.1
0.9 0.25 0.1
0.95 0.25 0.1
0.95 0.2 0
1 0.2 0
0.95 0.25 0
1 0.25 0
0.95 0.2 0.1
1 0.2 0.1
0.95 0.25 0.1
1 0.25 0.1
0 0.25 0
0.05 0.25 0
0 0.3 0
0.05 0.3 0
0 0.25 0.1
0.05 0.25 0.1
0 0.3 0.1
0.05 0.3 0.1
0.05 0.25 0
0.1 0.25 0
0.05 0.3 0
0.1 0.3 0
0.05 0.25 0.1
0.1 0.25 0.1
0.05 0.3 0.1
0.1 0.3 0.1
0.1 0.25 0
0.15 0.25 0
0.1 0.3 0
0.15 0.3 0
0.1 0.25 0.1
0.15 0.25 0.1
0.1 0.3 0.1
0.15 0.3 0.1
0.15 0.25 0
0.2 0.25 0
0.15 0.3 0
0.2 0.3 0
0.15 0.25 0.1
0.2 0.25 0.1
0.15 0.3 0.1
0.2 0.3 0.1
0.2 0.25 0
0.25 0.25 0
0.2 0.3 0
0.25 0.3 0
0.2 0.25 0.1
0.25 0.25 0.1
0.2 0.3 0.1
0.25 0.3 0.1
0.25 0.25 0
[...]
POINT_DATA 3200
SCALARS D double 1
LOOKUP_TABLE default
300 300.102 300 300.057 300 300.057 300 300.102 300.102 300.123 300.057 300.212 300.057 300.212 300.102 300.123 300.123 300.34 300.212 300.21 300.212 300.21 300.123 300.34 300.34 300.326 300.21 300.495 300.21 300.495 300.34 300.326 300.326 300.684 300.495 300.481 300.495 300.481 300.326 300.684 300.684 300.684 300.481 300.917 300.481 300.916 300.684 300.684 300.684 301.2 300.917 300.944 300.916 300.944 300.684 301.2 301.2 301.267 300.944 301.54 300.944 301.54 301.2 301.267 301.267 301.942 301.54 301.658 301.54 301.658 301.267 301.942 301.942 302.122 301.658 302.409 301.658 302.409 301.942 302.122 302.122 302.942 302.409 302.658 302.409 302.658 302.122 302.942 302.942 303.267 302.658 303.54 302.658 303.54 302.942 303.267 303.267 304.2 303.54 303.944 303.54 303.944 303.267 304.2 304.2 304.684 303.944 304.916 303.944 304.916 304.2 304.684 304.684 305.684 304.916 305.481 304.916 305.481 304.684 305.684 305.684 306.326 305.481 306.495 305.481 306.495 305.684 306.326 306.326 307.34 306.495 307.21 306.495 307.21 306.326 307.34 307.34 308.123 307.21 308.212 307.21 308.212 307.34 308.123 308.123 309.102 308.212 309.057 308.212 309.057 308.123 309.102 309.102 310 309.057 310 309.057 310 309.102 310 300 300.057 300 300.102 300 300.102 300 300.057 300.057 300.212 300.102 300.123 300.102 300.123 300.057 300.212 300.212 300.21 300.123 300.34 300.123 300.34 300.212 300.21 300.21 300.495 300.34 300.326 300.34 300.326 300.21 300.495 300.495 300.481 300.326 300.684 300.326 300.684 300.495 300.481 300.481 300.917 300.684 300.684 300.684 300.684 300.481 300.917 300.917 300.944 300.684 301.2 300.684 301.2 300.917 300.943 300.944 301.54 301.2 301.266 301.2 301.267 300.943 301.54 301.54 301.658 301.266 301.942 301.267 301.942 301.54 301.658 301.658 302.409 301.942 302.121 301.942 302.122 301.658 302.409 302.409 302.658 302.121 302.942 302.122 302.942 302.409 302.658 302.658 303.54 302.942 303.266 302.942 303.267 302.658 303.54 303.54 303.944 303.266 304.2 303.267 304.2 303.54 303.944 303.944 304.916 304.2 304.684 304.2 304.684 303.944 304.917 304.916 305.481 304.684 305.684 304.684 305.684 304.917 305.481 305.481 306.495 305.684 306.326 305.684 306.326 305.481 306.495 306.495 307.21 306.326 307.34 306.326 307.34 306.495 307.21 307.21 308.212 307.34 308.123 307.34 308.123 307.21 308.212 308.212 309.057 308.123 309.102 308.123 309.102 308.212 309.057 309.057 310 309.102 310 309.102 310 309.057 310 300 300.102 300 300.057 300 300.057 300 300.102 300.102 300.123 300.057 300.212 300.057 300.212 300.102 300.123 300.123 300.34 300.212 300.209 300.212 300.21 300.123 300.341 300.34 300.326 300.209 300.495 300.21 300.495 300.341 300.325 300.326 300.684 300.495 300.48 300.495 300.481 300.325 300.685 300.684 300.684 300.48 300.917 300.481 300.917 300.685 300.684 300.684 301.2 300.917 300.943 300.917 300.943 300.684 301.2 301.2 301.266 300.943 301.54 300.943 301.54 301.2 301.266 301.266 301.942 301.54 301.657 301.54 301.658 301.266 301.943 301.942 302.121 301.657 302.409 301.658 302.409 301.943 302.121 302.121 302.942 302.409 302.657 302.409 302.658 302.121 302.942 302.942 303.266 302.657 303.54 302.658 303.54 302.942 303.266 303.266 304.2 303.54 303.943 303.54 303.944 303.266 304.2 304.2 304.684 303.943 304.917 303.944 304.917 304.2 304.684 304.684 305.684 304.917 305.48 304.917 305.481 304.684 305.684 305.684 306.326 305.48 306.495 305.481 306.495 305.684 306.325 306.326 307.34 306.495 307.209 306.495 307.21 306.325 307.34 307.34 308.123 307.209 308.212 307.21 308.212 307.34 308.123 308.123 309.102 308.212 309.057 308.212 309.057 308.123 309.102 309.102 310 309.057 310 309.057 310 309.102 310 300 300.057 300 300.102 300 300.102 300 300.057 300.057 300.212 300.102 300.123 300.102 300.123 300.057 300.213 300.212 300.209 300.123 300.341 300.123 300.341 300.213 300.209 300.209 300.495 300.341 300.325 300.341 300.325 300.209 300.495 300.495 300.48 300.325 300.685 300.325 300.685 300.495 300.48 300.48 300.917 300.685 300.683 300.685 300.684 300.48 300.918 300.917 300.943 300.683 301.201 300.684 301.2 300.918 300.943 300.943 301.54 301.201 301.265 301.2 301.266 300.943 301.541 301.54 301.657 301.265 301.943 301.266 301.943 301.541 301.657 301.657 302.409 301.943 302.12 301.943 302.121 301.657 302.41 302.409 302.657 302.12 302.943 302.121 302.942 302.41 302.657 302.657 303.54 302.943 303.265 302.942 303.266 302.657 303.541 303.54 303.943 303.265 304.201 303.266 304.2 303.541 303.943 303.943 304.917 304.201 304.683 304.2 304.684 303.943 304.918 304.917 305.48 304.683 305.685 304.684 305.684 304.918 305.48 305.48 306.495 305.685 306.325 305.684 306.325 305.48 306.495 306.495 307.209 306.325 307.341 306.325 307.34 306.495 307.209 307.209 308.212 307.341 308.123 307.34 308.123 307.209 308.213 308.212 309.057 308.123 309.102 308.123 309.102 308.213 309.057 309.057 310 309.102 310 309.102 310 309.057 310 300 300.102 300 300.056 300 300.057 300 300.102 300.102 300.123 300.056 300.213 300.057 300.213 300.102 300.123 300.123 300.341 300.213 300.209 300.213 300.209 300.123 300.341 300.341 300.325 300.209 300.496 300.209 300.495 300.341 300.324 300.325 300.685 300.496 300.479 300.495 300.48 300.324 300.686 300.685 300.683 300.479 300.918 300.48 300.918 300.686 300.682 300.683 301.201 300.918 300.942 300.918 300.943 300.682 301.202 301.201 301.265 300.942 301.542 300.943 301.541 301.202 301.265 301.265 301.943 301.542 301.656 301.541 301.657 301.265 301.944 301.943 302.12 301.656 302.411 301.657 302.41 301.944 302.119 302.12 302.943 302.411 302.656 302.41 302.657 302.119 302.944 302.943 303.265 302.656 303.542 302.657 303.541 302.944 303.265 303.265 304.201 303.542 303.942 303.541 303.943 303.265 304.202 304.201 304.683 303.942 304.918 303.943 304.918 304.202 304.682 304.683 305.685 304.918 305.479 304.918 305.48 304.682 305.685 305.685 306.325 305.479 306.496 305.48 306.495 305.685 306.325 306.325 307.341 306.496 307.209 306.495 307.209 306.325 307.341 307.341 308.123 307.209 308.213 307.209 308.213 307.341 308.123 308.123 309.102 308.213 309.056 308.213 309.057 308.123 309.102 309.102 310 309.056 310 309.057 310 309.102 310 300 300.056 300 300.102 300 300.102 300 300.056 300.056 300.213 300.102 300.122 300.102 300.123 300.056 300.213 300.213 300.209 300.122 300.342 300.123 300.341 300.213 300.208 300.209 300.496 300.342 300.324 300.341 300.324 300.208 300.496 300.496 300.479 300.324 300.686 300.324 300.686 300.496 300.479 300.479 300.918 300.686 300.682 300.686 300.682 300.479 300.919 300.918 300.942 300.682 301.202 300.682 301.202 300.919 300.941 300.942 301.542 301.202 301.264 301.202 301.265 300.941 301.543 301.542 301.656 301.264 301.945 301.265 301.944 301.543 301.655 301.656 302.411 301.945 302.118 301.944 302.119 301.655 302.412 302.411 302.656 302.118 302.945 302.119 302.944 302.412 302.655 302.656 303.542 302.945 303.264 302.944 303.265 302.655 303.543 303.542 303.942 303.264 304.202 303.265 304.202 303.543 303.941 303.942 304.918 304.202 304.682 304.202 304.682 303.941 304.919 304.918 305.479 304.682 305.686 304.682 305.685 304.919 305.479 305.479 306.496 305.686 306.324 305.685 306.325 305.479 306.496 306.496 307.209 306.324 307.342 306.325 307.341 306.496 307.208 307.209 308.213 307.342 308.122 307.341 308.123 307.208 308.213 308.213 309.056 308.122 309.102 308.123 309.102 308.213 309.056 309.056 310 309.102 310 309.102 310 309.056 310 300 300.102 300 300.056 300 300.056 300 300.102 300.102 300.122 300.056 300.213 300.056 300.213 300.102 300.122 300.122 300.342 300.213 300.208 300.213 300.208 300.122 300.342 300.342 300.324 300.208 300.497 300.208 300.496 300.342 300.323 300.324 300.686 300.497 300.478 300.496 300.479 300.323 300.687 300.686 300.682 300.478 300.92 300.479 300.919 300.687 300.681 300.682 301.202 300.92 300.94 300.919 300.941 300.681 301.203 301.202 301.264 300.94 301.544 300.941 301.543 301.203 301.263 301.264 301.945 301.544 301.654 301.543 301.655 301.263 301.946 301.945 302.118 301.654 302.413 301.655 302.412 301.946 302.117 302.118 302.945 302.413 302.654 302.412 302.655 302.117 302.946 302.945 303.264 302.654 303.544 302.655 303.543 302.946 303.263 303.264 304.202 303.544 303.94 303.543 303.941 303.263 304.203 304.202 304.682 303.94 304.92 303.941 304.919 304.203 304.681 304.682 305.686 304.92 305.478 304.919 305.479 304.681 305.687 305.686 306.324 305.478 306.497 305.479 306.496 305.687 306.323 306.324 307.342 306.497 307.208 306.496 307.208 306.323 307.342 307.342 308.122 307.208 308.213 307.208 308.213 307.342 308.122 308.122 309.102 308.213 309.056 308.213 309.056 308.122 309.102 309.102 310 309.056 310 309.056 310 309.102 310 300 300.056 300 300.102 300 300.102 300 300.056 300.056 300.213 300.102 300.122 300.102 300.122 300.056 300.214 300.213 300.208 300.122 300.343 300.122 300.342 300.214 300.207 300.208 300.497 300.343 300.323 300.342 300.323 300.207 300.498 300.497 300.478 300.323 300.688 300.323 300.687 300.498 300.477 300.478 300.92 300.688 300.68 300.687 300.681 300.477 300.921 300.92 300.94 300.68 301.204 300.681 301.203 300.921 300.939 300.94 301.544 301.204 301.262 301.203 301.263 300.939 301.545 301.544 301.654 301.262 301.947 301.263 301.946 301.545 301.653 301.654 302.413 301.947 302.116 301.946 302.117 301.653 302.414 302.413 302.654 302.116 302.947 302.117 302.946 302.414 302.653 302.654 303.544 302.947 303.262 302.946 303.263 302.653 303.545 303.544 303.94 303.262 304.204 303.263 304.203 303.545 303.939 303.94 304.92 304.204 304.68 304.203 304.681 303.939 304.921 304.92 305.478 304.68 305.688 304.681 305.687 304.921 305.477 305.478 306.497 305.688 306.323 305.687 306.323 305.477 306.498 306.497 307.208 306.323 307.342 306.323 307.342 306.498 307.207 307.208 308.213 307.342 308.122 307.342 308.122 307.207 308.214 308.213 309.056 308.122 309.102 308.122 309.102 308.214 309.056 309.056 310 309.102 310 309.102 310 309.056 310 300 300.102 300 300.056 300 300.056 300 300.103 300.102 300.122 300.056 300.214 300.056 300.214 300.103 300.121 300.122 300.343 300.214 300.207 300.214 300.207 300.121 300.343 300.343 300.323 300.207 300.498 300.207 300.498 300.343 300.322 300.323 300.688 300.498 300.476 300.498 300.477 300.322 300.688 300.688 300.68 300.476 300.922 300.477 300.921 300.688 300.679 300.68 301.204 300.922 300.938 300.921 300.939 300.679 301.205 301.204 301.262 300.938 301.546 300.939 301.545 301.205 301.261 301.262 301.947 301.546 301.652 301.545 301.653 301.261 301.948 301.947 302.116 301.652 302.415 301.653 302.414 301.948 302.115 302.116 302.947 302.415 302.652 302.414 302.653 302.115 302.948 302.947 303.262 302.652 303.546 302.653 303.545 302.948 303.261 303.262 304.204 303.546 303.938 303.545 303.939 303.261 304.205 304.204 304.68 303.938 304.922 303.939 304.921 304.205 304.679 304.68 305.688 304.922 305.476 304.921 305.477 304.679 305.688 305.688 306.323 305.476 306.498 305.477 306.498 305.688 306.322 306.323 307.342 306.498 307.207 306.498 307.207 306.322 307.343 307.342 308.122 307.207 308.214 307.207 308.214 307.343 308.121 308.122 309.102 308.214 309.056 308.214 309.056 308.121 309.103 309.102 310 309.056 310 309.056 310 309.103 310 300 300.056 300 300.103 300 300.103 300 300.056 300.056 300.214 300.103 300.121 300.103 300.121 300.056 300.214 300.214 300.207 300.121 300.344 300.121 300.343 300.214 300.206 300.207 300.498 300.344 300.321 300.343 300.322 300.206 300.499 300.498 300.476 300.321 300.689 300.322 300.688 300.499 300.476 300.476 300.922 300.689 300.678 300.688 300.679 300.476 300.923 300.922 300.938 300.678 301.206 300.679 301.205 300.923 300.937 300.938 301.546 301.206 301.259 301.205 301.261 300.937 301.547 301.546 301.652 301.259 301.949 301.261 301.948 301.547 301.651 301.652 302.415 301.949 302.114 301.948 302.115 301.651 302.416 302.415 302.652 302.114 302.949 302.115 302.948 302.416 302.651 302.652 303.546 302.949 303.259 302.948 303.261 302.651 303.547 303.546 303.938 303.259 304.206 303.261 304.205 303.547 303.937 303.938 304.922 304.206 304.678 304.205 304.679 303.937 304.923 304.922 305.476 304.678 305.689 304.679 305.688 304.923 305.476 305.476 306.498 305.689 306.321 305.688 306.322 305.476 306.499 306.498 307.207 306.321 307.344 306.322 307.343 306.499 307.206 307.207 308.214 307.344 308.121 307.343 308.121 307.206 308.214 308.214 309.056 308.121 309.103 308.121 309.103 308.214 309.056 309.056 310 309.103 310 309.103 310 309.056 310 300 300.103 300 300.055 300 300.056 300 300.103 300.103 300.121 300.055 300.215 300.056 300.214 300.103 300.121 300.121 300.344 300.215 300.206 300.214 300.206 300.121 300.344 300.344 300.321 300.206 300.5 300.206 300.499 300.344 300.321 300.321 300.689 300.5 300.475 300.499 300.476 300.321 300.69 300.689 300.678 300.475 300.924 300.476 300.923 300.69 300.677 300.678 301.206 300.924 300.936 300.923 300.937 300.677 301.207 301.206 301.259 300.936 301.548 300.937 301.547 301.207 301.258 301.259 301.949 301.548 301.649 301.547 301.651 301.258 301.95 301.949 302.114 301.649 302.417 301.651 302.416 301.95 302.113 302.114 302.949 302.417 302.65 302.416 302.651 302.113 302.95 302.949 303.259 302.65 303.548 302.651 303.547 302.95 303.258 303.259 304.206 303.548 303.936 303.547 303.937 303.258 304.207 304.206 304.678 303.936 304.924 303.937 304.923 304.207 304.677 304.678 305.689 304.924 305.475 304.923 305.476 304.677 305.69 305.689 306.321 305.475 306.5 305.476 306.499 305.69 306.321 306.321 307.344 306.5 307.206 306.499 307.206 306.321 307.344 307.344 308.121 307.206 308.215 307.206 308.214 307.344 308.121 308.121 309.103 308.215 309.055 308.214 309.056 308.121 309.103 309.103 310 309.055 310 309.056 310 309.103 310 300 300.055 300 300.103 300 300.103 300 300.055 300.055 300.215 300.103 300.12 300.103 300.121 300.055 300.215 300.215 300.206 300.12 300.345 300.121 300.344 300.215 300.205 300.206 300.5 300.345 300.32 300.344 300.321 300.205 300.5 300.5 300.475 300.32 300.691 300.321 300.69 300.5 300.474 300.475 300.924 300.691 300.676 300.69 300.677 300.474 300.925 300.924 300.936 300.676 301.208 300.677 301.207 300.925 300.935 300.936 301.548 301.208 301.257 301.207 301.258 300.935 301.549 301.548 301.649 301.257 301.952 301.258 301.95 301.549 301.648 301.649 302.417 301.952 302.112 301.95 302.113 301.648 302.419 302.417 302.65 302.112 302.952 302.113 302.95 302.419 302.648 302.65 303.548 302.952 303.257 302.95 303.258 302.648 303.549 303.548 303.936 303.257 304.208 303.258 304.207 303.549 303.935 303.936 304.924 304.208 304.676 304.207 304.677 303.935 304.924 304.924 305.475 304.676 305.691 304.677 305.69 304.924 305.474 305.475 306.5 305.691 306.32 305.69 306.321 305.474 306.5 306.5 307.206 306.32 307.345 306.321 307.344 306.5 307.205 307.206 308.215 307.345 308.12 307.344 308.121 307.205 308.215 308.215 309.055 308.12 309.103 308.121 309.103 308.215 309.055 309.055 310 309.103 310 309.103 310 309.055 310 300 300.103 300 300.055 300 300.055 300 300.103 300.103 300.12 300.055 300.216 300.055 300.215 300.103 300.12 300.12 300.345 300.216 300.205 300.215 300.205 300.12 300.345 300.345 300.32 300.205 300.501 300.205 300.5 300.345 300.319 300.32 300.691 300.501 300.473 300.5 300.474 300.319 300.692 300.691 300.676 300.473 300.925 300.474 300.925 300.692 300.675 300.676 301.208 300.925 300.934 300.925 300.935 300.675 301.209 301.208 301.257 300.934 301.55 300.935 301.549 301.209 301.256 301.257 301.952 301.55 301.647 301.549 301.648 301.256 301.953 301.952 302.112 301.647 302.42 301.648 302.419 301.953 302.111 302.112 302.952 302.42 302.647 302.419 302.648 302.111 302.953 302.952 303.257 302.647 303.55 302.648 303.549 302.953 303.256 303.257 304.208 303.55 303.934 303.549 303.935 303.256 304.209 304.208 304.676 303.934 304.925 303.935 304.924 304.209 304.675 304.676 305.691 304.925 305.473 304.924 305.474 304.675 305.692 305.691 306.32 305.473 306.501 305.474 306.5 305.692 306.319 306.32 307.345 306.501 307.205 306.5 307.205 306.319 307.345 307.345 308.12 307.205 308.215 307.205 308.215 307.345 308.12 308.12 309.103 308.215 309.055 308.215 309.055 308.12 309.103 309.103 310 309.055 310 309.055 310 309.103 310 300 300.055 300 300.104 300 300.103 300 300.055 300.055 300.216 300.104 300.12 300.103 300.12 300.055 300.216 300.216 300.205 300.12 300.346 300.12 300.345 300.216 300.204 300.205 300.501 300.346 300.319 300.345 300.319 300.204 300.502 300.501 300.473 300.319 300.693 300.319 300.692 300.502 300.472 300.473 300.925 300.693 300.674 300.692 300.675 300.472 300.926 300.925 300.934 300.674 301.21 300.675 301.209 300.926 300.933 300.934 301.55 301.21 301.255 301.209 301.256 300.933 301.551 301.55 301.647 301.255 301.954 301.256 301.953 301.551 301.646 301.647 302.42 301.954 302.11 301.953 302.111 301.646 302.421 302.42 302.647 302.11 302.954 302.111 302.953 302.421 302.646 302.647 303.55 302.954 303.255 302.953 303.256 302.646 303.551 303.55 303.934 303.255 304.21 303.256 304.209 303.551 303.933 303.934 304.925 304.21 304.674 304.209 304.675 303.933 304.926 304.925 305.473 304.674 305.692 304.675 305.692 304.926 305.472 305.473 306.501 305.692 306.319 305.692 306.319 305.472 306.502 306.501 307.205 306.319 307.346 306.319 307.345 306.502 307.204 307.205 308.215 307.346 308.12 307.345 308.12 307.204 308.216 308.215 309.055 308.12 309.104 308.12 309.103 308.216 309.055 309.055 310 309.104 310 309.103 310 309.055 310 300 300.104 300 300.055 300 300.055 300 300.104 300.104 300.12 300.055 300.216 300.055 300.216 300.104 300.119 300.12 300.346 300.216 300.204 300.216 300.204 300.119 300.346 300.346 300.319 300.204 300.502 300.204 300.502 300.346 300.318 300.319 300.693 300.502 300.472 300.502 300.472 300.318 300.693 300.693 300.674 300.472 300.927 300.472 300.926 300.693 300.674 300.674 301.21 300.927 300.932 300.926 300.933 300.674 301.211 301.21 301.255 300.932 301.552 300.933 301.551 301.211 301.254 301.255 301.954 301.552 301.645 301.551 301.646 301.254 301.955 301.954 302.11 301.645 302.422 301.646 302.421 301.955 302.109 302.11 302.954 302.422 302.645 302.421 302.646 302.109 302.955 302.954 303.255 302.645 303.552 302.646 303.551 302.955 303.254 303.255 304.21 303.552 303.932 303.551 303.933 303.254 304.211 304.21 304.674 303.932 304.927 303.933 304.926 304.211 304.674 304.674 305.692 304.927 305.472 304.926 305.472 304.674 305.693 305.692 306.319 305.472 306.502 305.472 306.502 305.693 306.318 306.319 307.346 306.502 307.204 306.502 307.204 306.318 307.346 307.346 308.12 307.204 308.216 307.204 308.216 307.346 308.119 308.12 309.104 308.216 309.055 308.216 309.055 308.119 309.104 309.104 310 309.055 310 309.055 310 309.104 310 300 300.055 300 300.104 300 300.104 300 300.055 300.055 300.216 300.104 300.119 300.104 300.119 300.055 300.216 300.216 300.204 300.119 300.346 300.119 300.346 300.216 300.204 300.204 300.502 300.346 300.318 300.346 300.318 300.204 300.503 300.502 300.472 300.318 300.694 300.318 300.693 300.503 300.471 300.472 300.927 300.694 300.673 300.693 300.674 300.471 300.928 300.927 300.932 300.673 301.212 300.674 301.211 300.928 300.932 300.932 301.552 301.212 301.254 301.211 301.254 300.932 301.553 301.552 301.645 301.254 301.955 301.254 301.955 301.553 301.645 301.645 302.422 301.955 302.108 301.955 302.109 301.645 302.422 302.422 302.645 302.108 302.955 302.109 302.955 302.422 302.645 302.645 303.552 302.955 303.254 302.955 303.254 302.645 303.553 303.552 303.932 303.254 304.212 303.254 304.211 303.553 303.932 303.932 304.927 304.212 304.673 304.211 304.674 303.932 304.928 304.927 305.472 304.673 305.694 304.674 305.693 304.928 305.471 305.472 306.502 305.694 306.318 305.693 306.318 305.471 306.503 306.502 307.204 306.318 307.346 306.318 307.346 306.503 307.204 307.204 308.216 307.346 308.119 307.346 308.119 307.204 308.216 308.216 309.055 308.119 309.104 308.119 309.104 308.216 309.055 309.055 310 309.104 310 309.104 310 309.055 310 300 300.104 300 300.054 300 300.055 300 300.104 300.104 300.119 300.054 300.217 300.055 300.216 300.104 300.119 300.119 300.346 300.217 300.203 300.216 300.204 300.119 300.347 300.346 300.318 300.203 300.503 300.204 300.503 300.347 300.317 300.318 300.694 300.