# vtk DataFile Version 3.0
#This file was generated by the deal.II library on 2024/12/6 at 17:35:39
ASCII
DATASET UNSTRUCTURED_GRID

POINTS 3200 double
0 0 0
0.05 0 0
0 0.05 0
0.05 0.05 0
0 0 0.1
0.05 0 0.1
0 0.05 0.1
0.05 0.05 0.1
0.05 0 0
0.1 0 0
0.05 0.05 0
0.1 0.05 0
0.05 0 0.1
0.1 0 0.1
0.05 0.05 0.1
0.1 0.05 0.1
0.1 0 0
0.15 0 0
0.1 0.05 0
0.15 0.05 0
0.1 0 0.1
0.15 0 0.1
0.1 0.05 0.1
0.15 0.05 0.1
0.15 0 0
0.2 0 0
0.15 0.05 0
0.2 0.05 0
0.15 0 0.1
0.2 0 0.1
0.15 0.05 0.1
0.2 0.05 0.1
0.2 0 0
0.25 0 0
0.2 0.05 0
0.25 0.05 0
0.2 0 0.1
0.25 0 0.1
0.2 0.05 0.1
0.25 0.05 0.1
0.25 0 0
0.3 0 0
0.25 0.05 0
0.3 0.05 0
0.25 0 0.1
0.3 0 0.1
0.25 0.05 0.1
0.3 0.05 0.1
0.3 0 0
0.35 0 0
0.3 0.05 0
0.35 0.05 0
0.3 0 0.1
0.35 0 0.1
0.3 0.05 0.1
0.35 0.05 0.1
0.35 0 0
0.4 0 0
0.35 0.05 0
0.4 0.05 0
0.35 0 0.1
0.4 0 0.1
0.35 0.05 0.1
0.4 0.05 0.1
0.4 0 0
0.45 0 0
0.4 0.05 0
0.45 0.05 0
0.4 0 0.1
0.45 0 0.1
0.4 0.05 0.1
0.45 0.05 0.1
0.45 0 0
0.5 0 0
0.45 0.05 0
0.5 0.05 0
0.45 0 0.1
0.5 0 0.1
0.45 0.05 0.1
0.5 0.05 0.1
0.5 0 0
0.55 0 0
0.5 0.05 0
0.55 0.05 0
0.5 0 0.1
0.55 0 0.1
0.5 0.05 0.1
0.55 0.05 0.1
0.55 0 0
0.6 0 0
0.55 0.05 0
0.6 0.05 0
0.55 0 0.1
0.6 0 0.1
0.55 0.05 0.1
0.6 0.05 0.1
0.6 0 0
0.65 0 0
0.6 0.05 0
0.65 0.05 0
0.6 0 0.1
0.65 0 0.1
0.6 0.05 0.1
0.65 0.05 0.1
0.65 0 0
0.7 0 0
0.65 0.05 0
0.7 0.05 0
0.65 0 0.1
0.7 0 0.1
0.65 0.05 0.1
0.7 0.05 0.1
0.7 0 0
0.75 0 0
0.7 0.05 0
0.75 0.05 0
0.7 0 0.1
0.75 0 0.1
0.7 0.05 0.1
0.75 0.05 0.1
0.75 0 0
0.8 0 0
0.75 0.05 0
0.8 0.05 0
0.75 0 0.1
0.8 0 0.1
0.75 0.05 0.1
0.8 0.05 0.1
0.8 0 0
0.85 0 0
0.8 0.05 0
0.85 0.05 0
0.8 0 0.1
0.85 0 0.1
0.8 0.05 0.1
0.85 0.05 0.1
0.85 0 0
0.9 0 0
0.85 0.05 0
0.9 0.05 0
0.85 0 0.1
0.9 0 0.1
0.85 0.05 0.1
0.9 0.05 0.1
0.9 0 0
0.95 0 0
0.9 0.05 0
0.95 0.05 0
0.9 0 0.1
0.95 0 0.1
0.9 0.05 0.1
0.95 0.05 0.1
0.95 0 0
1 0 0
0.95 0.05 0
1 0.05 0
0.95 0 0.1
1 0 0.1
0.95 0.05 0.1
1 0.05 0.1
0 0.05 0
0.05 0.05 0
0 0.1 0
0.05 0.1 0
0 0.05 0.1
0.05 0.05 0.1
0 0.1 0.1
0.05 0.1 0.1
0.05 0.05 0
0.1 0.05 0
0.05 0.1 0
0.1 0.1 0
0.05 0.05 0.1
0.1 0.05 0.1
0.05 0.1 0.1
0.1 0.1 0.1
0.1 0.05 0
0.15 0.05 0
0.1 0.1 0
0.15 0.1 0
0.1 0.05 0.1
0.15 0.05 0.1
0.1 0.1 0.1
0.15 0.1 0.1
0.15 0.05 0
0.2 0.05 0
0.15 0.1 0
0.2 0.1 0
0.15 0.05 0.1
0.2 0.05 0.1
0.15 0.1 0.1
0.2 0.1 0.1
0.2 0.05 0
0.25 0.05 0
0.2 0.1 0
0.25 0.1 0
0.2 0.05 0.1
0.25 0.05 0.1
0.2 0.1 0.1
0.25 0.1 0.1
0.25 0.05 0
0.3 0.05 0
0.25 0.1 0
0.3 0.1 0
0.25 0.05 0.1
0.3 0.05 0.1
0.25 0.1 0.1
0.3 0.1 0.1
0.3 0.05 0
0.35 0.05 0
0.3 0.1 0
0.35 0.1 0
0.3 0.05 0.1
0.35 0.05 0.1
0.3 0.1 0.1
0.35 0.1 0.1
0.35 0.05 0
0.4 0.05 0
0.35 0.1 0
0.4 0.1 0
0.35 0.05 0.1
0.4 0.05 0.1
0.35 0.1 0.1
0.4 0.1 0.1
0.4 0.05 0
0.45 0.05 0
0.4 0.1 0
0.45 0.1 0
0.4 0.05 0.1
0.45 0.05 0.1
0.4 0.1 0.1
0.45 0.1 0.1
0.45 0.05 0
0.5 0.05 0
0.45 0.1 0
0.5 0.1 0
0.45 0.05 0.1
0.5 0.05 0.1
0.45 0.1 0.1
0.5 0.1 0.1
0.5 0.05 0
0.55 0.05 0
0.5 0.1 0
0.55 0.1 0
0.5 0.05 0.1
0.55 0.05 0.1
0.5 0.1 0.1
0.55 0.1 0.1
0.55 0.05 0
0.6 0.05 0
0.55 0.1 0
0.6 0.1 0
0.55 0.05 0.1
0.6 0.05 0.1
0.55 0.1 0.1
0.6 0.1 0.1
0.6 0.05 0
0.65 0.05 0
0.6 0.1 0
0.65 0.1 0
0.6 0.05 0.1
0.65 0.05 0.1
0.6 0.1 0.1
0.65 0.1 0.1
0.65 0.05 0
0.7 0.05 0
0.65 0.1 0
0.7 0.1 0
0.65 0.05 0.1
0.7 0.05 0.1
0.65 0.1 0.1
0.7 0.1 0.1
0.7 0.05 0
0.75 0.05 0
0.7 0.1 0
0.75 0.1 0
0.7 0.05 0.1
0.75 0.05 0.1
0.7 0.1 0.1
0.75 0.1 0.1
0.75 0.05 0
0.8 0.05 0
0.75 0.1 0
0.8 0.1 0
0.75 0.05 0.1
0.8 0.05 0.1
0.75 0.1 0.1
0.8 0.1 0.1
0.8 0.05 0
0.85 0.05 0
0.8 0.1 0
0.85 0.1 0
0.8 0.05 0.1
0.85 0.05 0.1
0.8 0.1 0.1
0.85 0.1 0.1
0.85 0.05 0
0.9 0.05 0
0.85 0.1 0
0.9 0.1 0
0.85 0.05 0.1
0.9 0.05 0.1
0.85 0.1 0.1
0.9 0.1 0.1
0.9 0.05 0
0.95 0.05 0
0.9 0.1 0
0.95 0.1 0
0.9 0.05 0.1
0.95 0.05 0.1
0.9 0.1 0.1
0.95 0.1 0.1
0.95 0.05 0
1 0.05 0
0.95 0.1 0
1 0.1 0
0.95 0.05 0.1
1 0.05 0.1
0.95 0.1 0.1
1 0.1 0.1
0 0.1 0
0.05 0.1 0
0 0.15 0
0.05 0.15 0
0 0.1 0.1
0.05 0.1 0.1
0 0.15 0.1
0.05 0.15 0.1
0.05 0.1 0
0.1 0.1 0
0.05 0.15 0
0.1 0.15 0
0.05 0.1 0.1
0.1 0.1 0.1
0.05 0.15 0.1
0.1 0.15 0.1
0.1 0.1 0
0.15 0.1 0
0.1 0.15 0
0.15 0.15 0
0.1 0.1 0.1
0.15 0.1 0.1
0.1 0.15 0.1
0.15 0.15 0.1
0.15 0.1 0
0.2 0.1 0
0.15 0.15 0
0.2 0.15 0
0.15 0.1 0.1
0.2 0.1 0.1
0.15 0.15 0.1
0.2 0.15 0.1
0.2 0.1 0
0.25 0.1 0
0.2 0.15 0
0.25 0.15 0
0.2 0.1 0.1
0.25 0.1 0.1
0.2 0.15 0.1
0.25 0.15 0.1
0.25 0.1 0
0.3 0.1 0
0.25 0.15 0
0.3 0.15 0
0.25 0.1 0.1
0.3 0.1 0.1
0.25 0.15 0.1
0.3 0.15 0.1
0.3 0.1 0
0.35 0.1 0
0.3 0.15 0
0.35 0.15 0
0.3 0.1 0.1
0.35 0.1 0.1
0.3 0.15 0.1
0.35 0.15 0.1
0.35 0.1 0
0.4 0.1 0
0.35 0.15 0
0.4 0.15 0
0.35 0.1 0.1
0.4 0.1 0.1
0.35 0.15 0.1
0.4 0.15 0.1
0.4 0.1 0
0.45 0.1 0
0.4 0.15 0
0.45 0.15 0
0.4 0.1 0.1
0.45 0.1 0.1
0.4 0.15 0.1
0.45 0.15 0.1
0.45 0.1 0
0.5 0.1 0
0.45 0.15 0
0.5 0.15 0
0.45 0.1 0.1
0.5 0.1 0.1
0.45 0.15 0.1
0.5 0.15 0.1
0.5 0.1 0
0.55 0.1 0
0.5 0.15 0
0.55 0.15 0
0.5 0.1 0.1
0.55 0.1 0.1
0.5 0.15 0.1
0.55 0.15 0.1
0.55 0.1 0
0.6 0.1 0
0.55 0.15 0
0.6 0.15 0
0.55 0.1 0.1
0.6 0.1 0.1
0.55 0.15 0.1
0.6 0.15 0.1
0.6 0.1 0
0.65 0.1 0
0.6 0.15 0
0.65 0.15 0
0.6 0.1 0.1
0.65 0.1 0.1
0.6 0.15 0.1
0.65 0.15 0.1
0.65 0.1 0
0.7 0.1 0
0.65 0.15 0
0.7 0.15 0
0.65 0.1 0.1
0.7 0.1 0.1
0.65 0.15 0.1
0.7 0.15 0.1
0.7 0.1 0
0.75 0.1 0
0.7 0.15 0
0.75 0.15 0
0.7 0.1 0.1
0.75 0.1 0.1
0.7 0.15 0.1
0.75 0.15 0.1
0.75 0.1 0
0.8 0.1 0
0.75 0.15 0
0.8 0.15 0
0.75 0.1 0.1
0.8 0.1 0.1
0.75 0.15 0.1
0.8 0.15 0.1
0.8 0.1 0
0.85 0.1 0
0.8 0.15 0
0.85 0.15 0
0.8 0.1 0.1
0.85 0.1 0.1
0.8 0.15 0.1
0.85 0.15 0.1
0.85 0.1 0
0.9 0.1 0
0.85 0.15 0
0.9 0.15 0
0.85 0.1 0.1
0.9 0.1 0.1
0.85 0.15 0.1
0.9 0.15 0.1
0.9 0.1 0
0.95 0.1 0
0.9 0.15 0
0.95 0.15 0
0.9 0.1 0.1
0.95 0.1 0.1
0.9 0.15 0.1
0.95 0.15 0.1
0.95 0.1 0
1 0.1 0
0.95 0.15 0
1 0.15 0
0.95 0.1 0.1
1 0.1 0.1
0.95 0.15 0.1
1 0.15 0.1
0 0.15 0
0.05 0.15 0
0 0.2 0
0.05 0.2 0
0 0.15 0.1
0.05 0.15 0.1
0 0.2 0.1
0.05 0.2 0.1
0.05 0.15 0
0.1 0.15 0
0.05 0.2 0
0.1 0.2 0
0.05 0.15 0.1
0.1 0.15 0.1
0.05 0.2 0.1
0.1 0.2 0.1
0.1 0.15 0
0.15 0.15 0
0.1 0.2 0
0.15 0.2 0
0.1 0.15 0.1
0.15 0.15 0.1
0.1 0.2 0.1
0.15 0.2 0.1
0.15 0.15 0
0.2 0.15 0
0.15 0.2 0
0.2 0.2 0
0.15 0.15 0.1
0.2 0.15 0.1
0.15 0.2 0.1
0.2 0.2 0.1
0.2 0.15 0
0.25 0.15 0
0.2 0.2 0
0.25 0.2 0
0.2 0.15 0.1
0.25 0.15 0.1
0.2 0.2 0.1
0.25 0.2 0.1
0.25 0.15 0
0.3 0.15 0
0.25 0.2 0
0.3 0.2 0
0.25 0.15 0.1
0.3 0.15 0.1
0.25 0.2 0.1
0.3 0.2 0.1
0.3 0.15 0
0.35 0.15 0
0.3 0.2 0
0.35 0.2 0
0.3 0.15 0.1
0.35 0.15 0.1
0.3 0.2 0.1
0.35 0.2 0.1
0.35 0.15 0
0.4 0.15 0
0.35 0.2 0
0.4 0.2 0
0.35 0.15 0.1
0.4 0.15 0.1
0.35 0.2 0.1
0.4 0.2 0.1
0.4 0.15 0
0.45 0.15 0
0.4 0.2 0
0.45 0.2 0
0.4 0.15 0.1
0.45 0.15 0.1
0.4 0.2 0.1
0.45 0.2 0.1
0.45 0.15 0
0.5 0.15 0
0.45 0.2 0
0.5 0.2 0
0.45 0.15 0.1
0.5 0.15 0.1
0.45 0.2 0.1
0.5 0.2 0.1
0.5 0.15 0
0.55 0.15 0
0.5 0.2 0
0.55 0.2 0
0.5 0.15 0.1
0.55 0.15 0.1
0.5 0.2 0.1
0.55 0.2 0.1
0.55 0.15 0
0.6 0.15 0
0.55 0.2 0
0.6 0.2 0
0.55 0.15 0.1
0.6 0.15 0.1
0.55 0.2 0.1
0.6 0.2 0.1
0.6 0.15 0
0.65 0.15 0
0.6 0.2 0
0.65 0.2 0
0.6 0.15 0.1
0.65 0.15 0.1
0.6 0.2 0.1
0.65 0.2 0.1
0.65 0.15 0
0.7 0.15 0
0.65 0.2 0
0.7 0.2 0
0.65 0.15 0.1
0.7 0.15 0.1
0.65 0.2 0.1
0.7 0.2 0.1
0.7 0.15 0
0.75 0.15 0
0.7 0.2 0
0.75 0.2 0
0.7 0.15 0.1
0.75 0.15 0.1
0.7 0.2 0.1
0.75 0.2 0.1
0.75 0.15 0
0.8 0.15 0
0.75 0.2 0
0.8 0.2 0
0.75 0.15 0.1
0.8 0.15 0.1
0.75 0.2 0.1
0.8 0.2 0.1
0.8 0.15 0
0.85 0.15 0
0.8 0.2 0
0.85 0.2 0
0.8 0.15 0.1
0.85 0.15 0.1
0.8 0.2 0.1
0.85 0.2 0.1
0.85 0.15 0
0.9 0.15 0
0.85 0.2 0
0.9 0.2 0
0.85 0.15 0.1
0.9 0.15 0.1
0.85 0.2 0.1
0.9 0.2 0.1
0.9 0.15 0
0.95 0.15 0
0.9 0.2 0
0.95 0.2 0
0.9 0.15 0.1
0.95 0.15 0.1
0.9 0.2 0.1
0.95 0.2 0.1
0.95 0.15 0
1 0.15 0
0.95 0.2 0
1 0.2 0
0.95 0.15 0.1
1 0.15 0.1
0.95 0.2 0.1
1 0.2 0.1
0 0.2 0
0.05 0.2 0
0 0.25 0
0.05 0.25 0
0 0.2 0.1
0.05 0.2 0.1
0 0.25 0.1
0.05 0.25 0.1
0.05 0.2 0
0.1 0.2 0
0.05 0.25 0
0.1 0.25 0
0.05 0.2 0.1
0.1 0.2 0.1
0.05 0.25 0.1
0.1 0.25 0.1
0.1 0.2 0
0.15 0.2 0
0.1 0.25 0
0.15 0.25 0
0.1 0.2 0.1
0.15 0.2 0.1
0.1 0.25 0.1
0.15 0.25 0.1
0.15 0.2 0
0.2 0.2 0
0.15 0.25 0
0.2 0.25 0
0.15 0.2 0.1
0.2 0.2 0.1
0.15 0.25 0.1
0.2 0.25 0.1
0.2 0.2 0
0.25 0.2 0
0.2 0.25 0
0.25 0.25 0
0.2 0.2 0.1
0.25 0.2 0.1
0.2 0.25 0.1
0.25 0.25 0.1
0.25 0.2 0
0.3 0.2 0
0.25 0.25 0
0.3 0.25 0
0.25 0.2 0.1
0.3 0.2 0.1
0.25 0.25 0.1
0.3 0.25 0.1
0.3 0.2 0
0.35 0.2 0
0.3 0.25 0
0.35 0.25 0
0.3 0.2 0.1
0.35 0.2 0.1
0.3 0.25 0.1
0.35 0.25 0.1
0.35 0.2 0
0.4 0.2 0
0.35 0.25 0
0.4 0.25 0
0.35 0.2 0.1
0.4 0.2 0.1
0.35 0.25 0.1
0.4 0.25 0.1
0.4 0.2 0
0.45 0.2 0
0.4 0.25 0
0.45 0.25 0
0.4 0.2 0.1
0.45 0.2 0.1
0.4 0.25 0.1
0.45 0.25 0.1
0.45 0.2 0
0.5 0.2 0
0.45 0.25 0
0.5 0.25 0
0.45 0.2 0.1
0.5 0.2 0.1
0.45 0.25 0.1
0.5 0.25 0.1
0.5 0.2 0
0.55 0.2 0
0.5 0.25 0
0.55 0.25 0
0.5 0.2 0.1
0.55 0.2 0.1
0.5 0.25 0.1
0.55 0.25 0.1
0.55 0.2 0
0.6 0.2 0
0.55 0.25 0
0.6 0.25 0
0.55 0.2 0.1
0.6 0.2 0.1
0.55 0.25 0.1
0.6 0.25 0.1
0.6 0.2 0
0.65 0.2 0
0.6 0.25 0
0.65 0.25 0
0.6 0.2 0.1
0.65 0.2 0.1
0.6 0.25 0.1
0.65 0.25 0.1
0.65 0.2 0
0.7 0.2 0
0.65 0.25 0
0.7 0.25 0
0.65 0.2 0.1
0.7 0.2 0.1
0.65 0.25 0.1
0.7 0.25 0.1
0.7 0.2 0
0.75 0.2 0
0.7 0.25 0
0.75 0.25 0
0.7 0.2 0.1
0.75 0.2 0.1
0.7 0.25 0.1
0.75 0.25 0.1
0.75 0.2 0
0.8 0.2 0
0.75 0.25 0
0.8 0.25 0
0.75 0.2 0.1
0.8 0.2 0.1
0.75 0.25 0.1
0.8 0.25 0.1
0.8 0.2 0
0.85 0.2 0
0.8 0.25 0
0.85 0.25 0
0.8 0.2 0.1
0.85 0.2 0.1
0.8 0.25 0.1
0.85 0.25 0.1
0.85 0.2 0
0.9 0.2 0
0.85 0.25 0
0.9 0.25 0
0.85 0.2 0.1
0.9 0.2 0.1
0.85 0.25 0.1
0.9 0.25 0.1
0.9 0.2 0
0.95 0.2 0
0.9 0.25 0
0.95 0.25 0
0.9 0.2 0.1
0.95 0.2 0.1
0.9 0.25 0.1
0.95 0.25 0.1
0.95 0.2 0
1 0.2 0
0.95 0.25 0
1 0.25 0
0.95 0.2 0.1
1 0.2 0.1
0.95 0.25 0.1
1 0.25 0.1
0 0.25 0
0.05 0.25 0
0 0.3 0
0.05 0.3 0
0 0.25 0.1
0.05 0.25 0.1
0 0.3 0.1
0.05 0.3 0.1
0.05 0.25 0
0.1 0.25 0
0.05 0.3 0
0.1 0.3 0
0.05 0.25 0.1
0.1 0.25 0.1
0.05 0.3 0.1
0.1 0.3 0.1
0.1 0.25 0
0.15 0.25 0
0.1 0.3 0
0.15 0.3 0
0.1 0.25 0.1
0.15 0.25 0.1
0.1 0.3 0.1
0.15 0.3 0.1
0.15 0.25 0
0.2 0.25 0
0.15 0.3 0
0.2 0.3 0
0.15 0.25 0.1
0.2 0.25 0.1
0.15 0.3 0.1
0.2 0.3 0.1
0.2 0.25 0
0.25 0.25 0
0.2 0.3 0
0.25 0.3 0
0.2 0.25 0.1
0.25 0.25 0.1
0.2 0.3 0.1
0.25 0.3 0.1
0.25 0.25 0
[...]
POINT_DATA 3200
SCALARS D double 1
LOOKUP_TABLE default
300 78416.8 300 -77827.1 300 -77816.5 300 78427.4 78416.8 -154009 -77827.1 154631 -77816.5 154610 78427.4 -154030 -154009 227004 154631 -226433 154610 -226403 -154030 227034 227004 -293214 -226433 293855 -226403 293815 227034 -293253 -293214 353399 293855 -352845 293815 -352797 -293253 353447 353399 -403686 -352845 404343 -352797 404289 353447 -403741 -403686 445231 404343 -444688 404289 -444628 -403741 445291 445231 -474613 -444688 475282 -444628 475217 445291 -474678 -474613 493510 475282 -492972 475217 -492905 -474678 493576 493510 -499052 -492972 499725 -492905 499658 493576 -499120 -499052 493510 499725 -492970 499658 -492903 -499120 493577 493510 -474610 -492970 475282 -492903 475218 493577 -474675 -474610 445232 475282 -444683 475218 -444623 -474675 445292 445232 -403680 -444683 404346 -444623 404291 445292 -403735 -403680 353402 404346 -352838 404291 -352790 -403735 353450 353402 -293206 -352838 293859 -352790 293819 353450 -293246 -293206 227009 293859 -226425 293819 -226394 -293246 227040 227009 -154000 -226425 154638 -226394 154617 227040 -154021 -154000 78425.1 154638 -77817.4 154617 -77806.8 -154021 78435.7 78425.1 310 -77817.4 310 -77806.8 310 78435.7 310 300 -77827.1 300 78458.9 300 78427.4 300 -77858.6 -77827.1 154631 78458.9 -154093 78427.4 -154030 -77858.6 154693 154631 -226433 -154093 227126 -154030 227034 154693 -226525 -226433 293855 227126 -293372 227034 -293253 -226525 293973 293855 -352845 -293372 353589 -293253 353447 293973 -352988 -352845 404343 353589 -403904 353447 -403741 -352988 404506 404343 -444688 -403904 445471 -403741 445291 404506 -444868 -444688 475282 445471 -474869 445291 -474678 -444868 475473 475282 -492972 -474869 493775 -474678 493576 475473 -493171 -492972 499725 493775 -499321 493576 -499120 -493171 499927 499725 -492970 -499321 493776 -499120 493577 499927 -493169 -492970 475282 493776 -474866 493577 -474675 -493169 475474 475282 -444683 -474866 445472 -474675 445292 475474 -444863 -444683 404346 445472 -403898 445292 -403735 -444863 404509 404346 -352838 -403898 353592 -403735 353450 404509 -352981 -352838 293859 353592 -293364 353450 -293246 -352981 293977 293859 -226425 -293364 227131 -293246 227040 293977 -226516 -226425 154638 227131 -154083 227040 -154021 -226516 154700 154638 -77817.4 -154083 78467.3 -154021 78435.7 154700 -77849 -77817.4 310 78467.3 310 78435.7 310 -77849 310 300 78458.9 300 -77910.2 300 -77858.6 300 78510.6 78458.9 -154093 -77910.2 154795 -77858.6 154693 78510.6 -154195 -154093 227126 154795 -226675 154693 -226525 -154195 227276 227126 -293372 -226675 294167 -226525 293973 227276 -293566 -293372 353589 294167 -353221 293973 -352988 -293566 353823 353589 -403904 -353221 404774 -352988 404506 353823 -404171 -403904 445471 404774 -445162 404506 -444868 -404171 445765 445471 -474869 -445162 475787 -444868 475473 445765 -475184 -474869 493775 475787 -493497 475473 -493171 -475184 494102 493775 -499321 -493497 500257 -493171 499927 494102 -499652 -499321 493776 500257 -493495 499927 -493169 -499652 494102 493776 -474866 -493495 475788 -493169 475474 494102 -475180 -474866 445472 475788 -445157 475474 -444863 -475180 445766 445472 -403898 -445157 404776 -444863 404509 445766 -404165 -403898 353592 404776 -353214 404509 -352981 -404165 353826 353592 -293364 -353214 294172 -352981 293977 353826 -293558 -293364 227131 294172 -226666 293977 -226516 -293558 227281 227131 -154083 -226666 154802 -226516 154700 227281 -154185 -154083 78467.3 154802 -77900.6 154700 -77849 -154185 78518.9 78467.3 310 -77900.6 310 -77849 310 78518.9 310 300 -77910.2 300 78581.1 300 78510.6 300 -77980.8 -77910.2 154795 78581.1 -154334 78510.6 -154195 -77980.8 154935 154795 -226675 -154334 227481 -154195 227276 154935 -226880 -226675 294167 227481 -293831 227276 -293566 -226880 294432 294167 -353221 -293831 354142 -293566 353823 294432 -353540 -353221 404774 354142 -404536 353823 -404171 -353540 405139 404774 -445162 -404536 446167 -404171 445765 405139 -445564 -445162 475787 446167 -475612 445765 -475184 -445564 476216 475787 -493497 -475612 494547 -475184 494102 476216 -493942 -493497 500257 494547 -500103 494102 -499652 -493942 500708 500257 -493495 -500103 494547 -499652 494102 500708 -493941 -493495 475788 494547 -475609 494102 -475180 -493941 476217 475788 -445157 -475609 446168 -475180 445766 476217 -445559 -445157 404776 446168 -404530 445766 -404165 -445559 405141 404776 -353214 -404530 354145 -404165 353826 405141 -353533 -353214 294172 354145 -293823 353826 -293558 -353533 294437 294172 -226666 -293823 227486 -293558 227281 294437 -226871 -226666 154802 227486 -154325 227281 -154185 -226871 154941 154802 -77900.6 -154325 78589.5 -154185 78518.9 154941 -77971.2 -77900.6 310 78589.5 310 78518.9 310 -77971.2 310 300 78581.1 300 -78068.5 300 -77980.8 300 78668.8 78581.1 -154334 -78068.5 155108 -77980.8 154935 78668.8 -154507 -154334 227481 155108 -227134 154935 -226880 -154507 227735 227481 -293831 -227134 294762 -226880 294432 227735 -294161 -293831 354142 294762 -353936 294432 -353540 -294161 354538 354142 -404536 -353936 405592 -353540 405139 354538 -404990 -404536 446167 405592 -446063 405139 -445564 -404990 446666 446167 -475612 -446063 476749 -445564 476216 446666 -476146 -475612 494547 476749 -494496 476216 -493942 -476146 495101 494547 -500103 -494496 501269 -493942 500708 495101 -500663 -500103 494547 501269 -494494 500708 -493941 -500663 495101 494547 -475609 -494494 476750 -493941 476217 495101 -476142 -475609 446168 476750 -446058 476217 -445559 -476142 446668 446168 -404530 -446058 405594 -445559 405141 446668 -404984 -404530 354145 405594 -353929 405141 -353533 -404984 354541 354145 -293823 -353929 294766 -353533 294437 354541 -294153 -293823 227486 294766 -227125 294437 -226871 -294153 227740 227486 -154325 -227125 155115 -226871 154941 227740 -154498 -154325 78589.5 155115 -78058.9 154941 -77971.2 -154498 78677.2 78589.5 310 -78058.9 310 -77971.2 310 78677.2 310 300 -78068.5 300 78771.5 300 78668.8 300 -78171.1 -78068.5 155108 78771.5 -154710 78668.8 -154507 -78171.1 155311 155108 -227134 -154710 228033 -154507 227735 155311 -227432 -227134 294762 228033 -294546 227735 -294161 -227432 295148 294762 -353936 -294546 355002 -294161 354538 295148 -354400 -353936 405592 355002 -405521 354538 -404990 -354400 406123 405592 -446063 -405521 447251 -404990 446666 406123 -446648 -446063 476749 447251 -476770 446666 -476146 -446648 477373 476749 -494496 -476770 495749 -476146 495101 477373 -495144 -494496 501269 495749 -501319 495101 -500663 -495144 501925 501269 -494494 -501319 495749 -500663 495101 501925 -495143 -494494 476750 495749 -476767 495101 -476142 -495143 477374 476750 -446058 -476767 447252 -476142 446668 477374 -446643 -446058 405594 447252 -405515 446668 -404984 -446643 406125 405594 -353929 -405515 355005 -404984 354541 406125 -354393 -353929 294766 355005 -294538 354541 -294153 -354393 295152 294766 -227125 -294538 228038 -294153 227740 295152 -227423 -227125 155115 228038 -154701 227740 -154498 -227423 155317 155115 -78058.9 -154701 78779.8 -154498 78677.2 155317 -78161.5 -78058.9 310 78779.8 310 78677.2 310 -78161.5 310 300 78771.5 300 -78286.3 300 -78171.1 300 78886.6 78771.5 -154710 -78286.3 155538 -78171.1 155311 78886.6 -154937 -154710 228033 155538 -227766 155311 -227432 -154937 228367 228033 -294546 -227766 295580 -227432 295148 228367 -294979 -294546 355002 295580 -354921 295148 -354400 -294979 355523 355002 -405521 -354921 406718 -354400 406123 355523 -406116 -405521 447251 406718 -447304 406123 -446648 -406116 447907 447251 -476770 -447304 478073 -446648 477373 447907 -477470 -476770 495749 478073 -495871 477373 -495144 -477470 496476 495749 -501319 -495871 502661 -495144 501925 496476 -502055 -501319 495749 502661 -495870 501925 -495143 -502055 496476 495749 -476767 -495870 478074 -495143 477374 496476 -477466 -476767 447252 478074 -447299 477374 -446643 -477466 447908 447252 -405515 -447299 406720 -446643 406125 447908 -406110 -405515 355005 406720 -354914 406125 -354393 -406110 355526 355005 -294538 -354914 295584 -354393 295152 355526 -294971 -294538 228038 295584 -227757 295152 -227423 -294971 228372 228038 -154701 -227757 155545 -227423 155317 228372 -154928 -154701 78779.8 155545 -78276.6 155317 -78161.5 -154928 78895 78779.8 310 -78276.6 310 -78161.5 310 78895 310 300 -78286.3 300 79011.3 300 78886.6 300 -78411 -78286.3 155538 79011.3 -155184 78886.6 -154937 -78411 155784 155538 -227766 -155184 228729 -154937 228367 155784 -228128 -227766 295580 228729 -295448 228367 -294979 -228128 296049 295580 -354921 -295448 356087 -294979 355523 296049 -355485 -354921 406718 356087 -406761 355523 -406116 -355485 407363 406718 -447304 -406761 448617 -406116 447907 407363 -448014 -447304 478073 448617 -478228 447907 -477470 -448014 478832 478073 -495871 -478228 497263 -477470 496476 478832 -496659 -495871 502661 497263 -502853 496476 -502055 -496659 503458 502661 -495870 -502853 497264 -502055 496476 503458 -496657 -495870 478074 497264 -478225 496476 -477466 -496657 478833 478074 -447299 -478225 448618 -477466 447908 478833 -448009 -447299 406720 448618 -406755 447908 -406110 -448009 407366 406720 -354914 -406755 356090 -406110 355526 407366 -355478 -354914 295584 356090 -295440 355526 -294971 -355478 296053 295584 -227757 -295440 228734 -294971 228372 296053 -228119 -227757 155545 228734 -155175 228372 -154928 -228119 155791 155545 -78276.6 -155175 79019.7 -154928 78895 155791 -78401.4 -78276.6 310 79019.7 310 78895 310 -78401.4 310 300 79011.3 300 -78542.3 300 -78411 300 79142.6 79011.3 -155184 -78542.3 156044 -78411 155784 79142.6 -155443 -155184 228729 156044 -228509 155784 -228128 -155443 229110 228729 -295448 -228509 296542 -228128 296049 229110 -295941 -295448 356087 296542 -356078 296049 -355485 -295941 356680 356087 -406761 -356078 408042 -355485 407363 356680 -407440 -406761 448617 408042 -448762 407363 -448014 -407440 449365 448617 -478228 -448762 479630 -448014 478832 449365 -479026 -478228 497263 479630 -497488 478832 -496659 -479026 498092 497263 -502853 -497488 504297 -496659 503458 498092 -503692 -502853 497264 504297 -497486 503458 -496657 -503692 498093 497264 -478225 -497486 479631 -496657 478833 498093 -479023 -478225 448618 479631 -448757 478833 -448009 -479023 449366 448618 -406755 -448757 408045 -448009 407366 449366 -407434 -406755 356090 408045 -356071 407366 -355478 -407434 356683 356090 -295440 -356071 296546 -355478 296053 356683 -295933 -295440 228734 296546 -228500 296053 -228119 -295933 229115 228734 -155175 -228500 156051 -228119 155791 229115 -155434 -155175 79019.7 156051 -78532.7 155791 -78401.4 -155434 79151 79019.7 310 -78532.7 310 -78401.4 310 79151 310 300 -78542.3 300 79277.2 300 79142.6 300 -78676.9 -78542.3 156044 79277.2 -155709 79142.6 -155443 -78676.9 156310 156044 -228509 -155709 229501 -155443 229110 156310 -228900 -228509 296542 229501 -296447 229110 -295941 -228900 297048 296542 -356078 -296447 357288 -295941 356680 297048 -356687 -356078 408042 357288 -408136 356680 -407440 -356687 408739 408042 -448762 -408136 450132 -407440 449365 408739 -449529 -448762 479630 450132 -479844 449365 -479026 -449529 480448 479630 -497488 -479844 498942 -479026 498092 480448 -498338 -497488 504297 498942 -504552 498092 -503692 -498338 505158 504297 -497486 -504552 498942 -503692 498093 505158 -498336 -497486 479631 498942 -479841 498093 -479023 -498336 480449 479631 -448757 -479841 450133 -479023 449366 480449 -449524 -448757 408045 450133 -408130 449366 -407434 -449524 408741 408045 -356071 -408130 357291 -407434 356683 408741 -356680 -356071 296546 357291 -296439 356683 -295933 -356680 297052 296546 -228500 -296439 229506 -295933 229115 297052 -228891 -228500 156051 229506 -155700 229115 -155434 -228891 156317 156051 -78532.7 -155700 79285.6 -155434 79151 156317 -78667.3 -78532.7 310 79285.6 310 79151 310 -78667.3 310 300 79277.2 300 -78811.5 300 -78676.9 300 79411.8 79277.2 -155709 -78811.5 156576 -78676.9 156310 79411.8 -155975 -155709 229501 156576 -229290 156310 -228900 -155975 229891 229501 -296447 -229290 297554 -228900 297048 229891 -296952 -296447 357288 297554 -357295 297048 -356687 -296952 357897 357288 -408136 -357295 409435 -356687 408739 357897 -408832 -408136 450132 409435 -450295 408739 -449529 -408832 450898 450132 -479844 -450295 481267 -449529 480448 450898 -480663 -479844 498942 481267 -499187 480448 -498338 -480663 499792 498942 -504552 -499187 506018 -498338 505158 499792 -505413 -504552 498942 506018 -499186 505158 -498336 -505413 499792 498942 -479841 -499186 481267 -498336 480449 499792 -480660 -479841 450133 481267 -450291 480449 -449524 -480660 450900 450133 -408130 -450291 409437 -449524 408741 450900 -408826 -408130 357291 409437 -357288 408741 -356680 -408826 357900 357291 -296439 -357288 297558 -356680 297052 357900 -296944 -296439 229506 297558 -229282 297052 -228891 -296944 229897 229506 -155700 -229282 156582 -228891 156317 229897 -155966 -155700 79285.6 156582 -78801.9 156317 -78667.3 -155966 79420.2 79285.6 310 -78801.9 310 -78667.3 310 79420.2 310 300 -78811.5 300 79543.1 300 79411.8 300 -78942.8 -78811.5 156576 79543.1 -156234 79411.8 -155975 -78942.8 156835 156576 -229290 -156234 230272 -155975 229891 156835 -229671 -229290 297554 230272 -297446 229891 -296952 -229671 298047 297554 -357295 -297446 358490 -296952 357897 298047 -357888 -357295 409435 358490 -409511 357897 -408832 -357888 410114 409435 -450295 -409511 451646 -408832 450898 410114 -451043 -450295 481267 451646 -481461 450898 -480663 -451043 482065 481267 -499187 -481461 500621 -480663 499792 482065 -500016 -499187 506018 500621 -506252 499792 -505413 -500016 506858 506018 -499186 -506252 500621 -505413 499792 506858 -500015 -499186 481267 500621 -481458 499792 -480660 -500015 482066 481267 -450291 -481458 451647 -480660 450900 482066 -451038 -450291 409437 451647 -409505 450900 -408826 -451038 410116 409437 -357288 -409505 358493 -408826 357900 410116 -357881 -357288 297558 358493 -297438 357900 -296944 -357881 298051 297558 -229282 -297438 230278 -296944 229897 298051 -229663 -229282 156582 230278 -156225 229897 -155966 -229663 156842 156582 -78801.9 -156225 79551.5 -155966 79420.2 156842 -78933.2 -78801.9 310 79551.5 310 79420.2 310 -78933.2 310 300 79543.1 300 -79067.5 300 -78942.8 300 79667.8 79543.1 -156234 -79067.5 157081 -78942.8 156835 79667.8 -156481 -156234 230272 157081 -230033 156835 -229671 -156481 230634 230272 -297446 -230033 298516 -229671 298047 230634 -297914 -297446 358490 298516 -358452 298047 -357888 -297914 359054 358490 -409511 -358452 410759 -357888 410114 359054 -410156 -409511 451646 410759 -451753 410114 -451043 -410156 452356 451646 -481461 -451753 482823 -451043 482065 452356 -482219 -481461 500621 482823 -500804 482065 -500016 -482219 501408 500621 -506252 -500804 507655 -500016 506858 501408 -507049 -506252 500621 507655 -500802 506858 -500015 -507049 501409 500621 -481458 -500802 482824 -500015 482066 501409 -482216 -481458 451647 482824 -451749 482066 -451038 -482216 452358 451647 -409505 -451749 410761 -451038 410116 452358 -410150 -409505 358493 410761 -358445 410116 -357881 -410150 359057 358493 -297438 -358445 298520 -357881 298051 359057 -297906 -297438 230278 298520 -230025 298051 -229663 -297906 230640 230278 -156225 -230025 157088 -229663 156842 230640 -156472 -156225 79551.5 157088 -79057.9 156842 -78933.2 -156472 79676.2 79551.5 310 -79057.9 310 -78933.2 310 79676.2 310 300 -79067.5 300 79783 300 79667.8 300 -79182.6 -79067.5 157081 79783 -156708 79667.8 -156481 -79182.6 157309 157081 -230033 -156708 230968 -156481 230634 157309 -230368 -230033 298516 230968 -298347 230634 -297914 -230368 298948 298516 -358452 -298347 359574 -297914 359054 298948 -358973 -358452 410759 359574 -410752 359054 -410156 -358973 411354 410759 -451753 -410752 453012 -410156 452356 411354 -452409 -451753 482823 453012 -482919 452356 -482219 -452409 483523 482823 -500804 -482919 502135 -482219 501408 483523 -501531 -500804 507655 502135 -507785 501408 -507049 -501531 508391 507655 -500802 -507785 502136 -507049 501409 508391 -501529 -500802 482824 502136 -482916 501409 -482216 -501529 483524 482824 -451749 -482916 453014 -482216 452358 483524 -452404 -451749 410761 453014 -410746 452358 -410150 -452404 411356 410761 -358445 -410746 359577 -410150 359057 411356 -358966 -358445 298520 359577 -298339 359057 -297906 -358966 298952 298520 -230025 -298339 230974 -297906 230640 298952 -230359 -230025 157088 230974 -156699 230640 -156472 -230359 157316 157088 -79057.9 -156699 79791.3 -156472 79676.2 157316 -79173 -79057.9 310 79791.3 310 79676.2 310 -79173 310 300 79783 300 -79285.3 300 -79182.6 300 79885.6 79783 -156708 -79285.3 157512 -79182.6 157309 79885.6 -156911 -156708 230968 157512 -230665 157309 -230368 -156911 231266 230968 -298347 -230665 299334 -230368 298948 231266 -298733 -298347 359574 299334 -359437 298948 -358973 -298733 360039 359574 -410752 -359437 411885 -358973 411354 360039 -411283 -410752 453012 411885 -452994 411354 -452409 -411283 453597 453012 -482919 -452994 484147 -452409 483523 453597 -483543 -482919 502135 484147 -502179 483523 -501531 -483543 502784 502135 -507785 -502179 509047 -501531 508391 502784 -508442 -507785 502136 509047 -502177 508391 -501529 -508442 502784 502136 -482916 -502177 484148 -501529 483524 502784 -483540 -482916 453014 484148 -452989 483524 -452404 -483540 453598 453014 -410746 -452989 411887 -452404 411356 453598 -411277 -410746 359577 411887 -359430 411356 -358966 -411277 360042 359577 -298339 -359430 299338 -358966 298952 360042 -298725 -298339 230974 299338 -230657 298952 -230359 -298725 231272 230974 -156699 -230657 157518 -230359 157316 231272 -156902 -156699 79791.3 157518 -79275.7 157316 -79173 -156902 79894 79791.3 310 -79275.7 310 -79173 310 79894 310 300 -79285.3 300 79973.3 300 79885.6 300 -79373 -79285.3 157512 79973.3 -157084 79885.6 -156911 -79373 157685 157512 -230665 -157084 231521 -156911 231266 157685 -230920 -230665 299334 231521 -299062 231266 -298733 -230920 299664 299334 -359437 -299062 360435 -298733 360039 299664 -359833 -359437 411885 360435 -411736 360039 -411283 -359833 412338 411885 -452994 -411736 454096 -411283 453597 412338 -453493 -452994 484147 454096 -484076 453597 -483543 -453493 484680 484147 -502179 -484076 503337 -483543 502784 484680 -502733 -502179 509047 503337 -509002 502784 -508442 -502733 509608 509047 -502177 -509002 503338 -508442 502784 509608 -502731 -502177 484148 503338 -484073 502784 -483540 -502731 484681 484148 -452989 -484073 454098 -483540 453598 484681 -453489 -452989 411887 454098 -411730 453598 -411277 -453489 412341 411887 -359430 -411730 360438 -411277 360042 412341 -359826 -359430 299338 360438 -299054 360042 -298725 -359826 299668 299338 -230657 -299054 231526 -298725 231272 299668 -230911 -230657 157518 231526 -157075 231272 -156902 -230911 157692 157518 -79275.7 -157075 79981.7 -156902 79894 157692 -79363.4 -79275.7 310 79981.7 310 79894 310 -79363.4 310 300 79973.3 300 -79443.5 300 -79373 300 80043.9 79973.3 -157084 -79443.5 157824 -79373 157685 80043.9 -157224 -157084 231521 157824 -231125 157685 -230920 -157224 231726 231521 -299062 -231125 299929 -230920 299664 231726 -299327 -299062 360435 299929 -360152 299664 -359833 -299327 360754 360435 -411736 -360152 412703 -359833 412338 360754 -412101 -411736 454096 412703 -453895 412338 -453493 -412101 454498 454096 -484076 -453895 485109 -453493 484680 454498 -484505 -484076 503337 485109 -503178 484680 -502733 -484505 503783 503337 -509002 -503178 510059 -502733 509608 503783 -509453 -509002 503338 510059 -503176 509608 -502731 -509453 503783 503338 -484073 -503176 485110 -502731 484681 503783 -484502 -484073 454098 485110 -453891 484681 -453489 -484502 454500 454098 -411730 -453891 412705 -453489 412341 454500 -412095 -411730 360438 412705 -360145 412341 -359826 -412095 360757 360438 -299054 -360145 299933 -359826 299668 360757 -299319 -299054 231526 299933 -231116 299668 -230911 -