# vtk DataFile Version 3.0
#This file was generated by the deal.II library on 2024/12/6 at 17:35:38
ASCII
DATASET UNSTRUCTURED_GRID

POINTS 3200 double
0 0 0
0.05 0 0
0 0.05 0
0.05 0.05 0
0 0 0.1
0.05 0 0.1
0 0.05 0.1
0.05 0.05 0.1
0.05 0 0
0.1 0 0
0.05 0.05 0
0.1 0.05 0
0.05 0 0.1
0.1 0 0.1
0.05 0.05 0.1
0.1 0.05 0.1
0.1 0 0
0.15 0 0
0.1 0.05 0
0.15 0.05 0
0.1 0 0.1
0.15 0 0.1
0.1 0.05 0.1
0.15 0.05 0.1
0.15 0 0
0.2 0 0
0.15 0.05 0
0.2 0.05 0
0.15 0 0.1
0.2 0 0.1
0.15 0.05 0.1
0.2 0.05 0.1
0.2 0 0
0.25 0 0
0.2 0.05 0
0.25 0.05 0
0.2 0 0.1
0.25 0 0.1
0.2 0.05 0.1
0.25 0.05 0.1
0.25 0 0
0.3 0 0
0.25 0.05 0
0.3 0.05 0
0.25 0 0.1
0.3 0 0.1
0.25 0.05 0.1
0.3 0.05 0.1
0.3 0 0
0.35 0 0
0.3 0.05 0
0.35 0.05 0
0.3 0 0.1
0.35 0 0.1
0.3 0.05 0.1
0.35 0.05 0.1
0.35 0 0
0.4 0 0
0.35 0.05 0
0.4 0.05 0
0.35 0 0.1
0.4 0 0.1
0.35 0.05 0.1
0.4 0.05 0.1
0.4 0 0
0.45 0 0
0.4 0.05 0
0.45 0.05 0
0.4 0 0.1
0.45 0 0.1
0.4 0.05 0.1
0.45 0.05 0.1
0.45 0 0
0.5 0 0
0.45 0.05 0
0.5 0.05 0
0.45 0 0.1
0.5 0 0.1
0.45 0.05 0.1
0.5 0.05 0.1
0.5 0 0
0.55 0 0
0.5 0.05 0
0.55 0.05 0
0.5 0 0.1
0.55 0 0.1
0.5 0.05 0.1
0.55 0.05 0.1
0.55 0 0
0.6 0 0
0.55 0.05 0
0.6 0.05 0
0.55 0 0.1
0.6 0 0.1
0.55 0.05 0.1
0.6 0.05 0.1
0.6 0 0
0.65 0 0
0.6 0.05 0
0.65 0.05 0
0.6 0 0.1
0.65 0 0.1
0.6 0.05 0.1
0.65 0.05 0.1
0.65 0 0
0.7 0 0
0.65 0.05 0
0.7 0.05 0
0.65 0 0.1
0.7 0 0.1
0.65 0.05 0.1
0.7 0.05 0.1
0.7 0 0
0.75 0 0
0.7 0.05 0
0.75 0.05 0
0.7 0 0.1
0.75 0 0.1
0.7 0.05 0.1
0.75 0.05 0.1
0.75 0 0
0.8 0 0
0.75 0.05 0
0.8 0.05 0
0.75 0 0.1
0.8 0 0.1
0.75 0.05 0.1
0.8 0.05 0.1
0.8 0 0
0.85 0 0
0.8 0.05 0
0.85 0.05 0
0.8 0 0.1
0.85 0 0.1
0.8 0.05 0.1
0.85 0.05 0.1
0.85 0 0
0.9 0 0
0.85 0.05 0
0.9 0.05 0
0.85 0 0.1
0.9 0 0.1
0.85 0.05 0.1
0.9 0.05 0.1
0.9 0 0
0.95 0 0
0.9 0.05 0
0.95 0.05 0
0.9 0 0.1
0.95 0 0.1
0.9 0.05 0.1
0.95 0.05 0.1
0.95 0 0
1 0 0
0.95 0.05 0
1 0.05 0
0.95 0 0.1
1 0 0.1
0.95 0.05 0.1
1 0.05 0.1
0 0.05 0
0.05 0.05 0
0 0.1 0
0.05 0.1 0
0 0.05 0.1
0.05 0.05 0.1
0 0.1 0.1
0.05 0.1 0.1
0.05 0.05 0
0.1 0.05 0
0.05 0.1 0
0.1 0.1 0
0.05 0.05 0.1
0.1 0.05 0.1
0.05 0.1 0.1
0.1 0.1 0.1
0.1 0.05 0
0.15 0.05 0
0.1 0.1 0
0.15 0.1 0
0.1 0.05 0.1
0.15 0.05 0.1
0.1 0.1 0.1
0.15 0.1 0.1
0.15 0.05 0
0.2 0.05 0
0.15 0.1 0
0.2 0.1 0
0.15 0.05 0.1
0.2 0.05 0.1
0.15 0.1 0.1
0.2 0.1 0.1
0.2 0.05 0
0.25 0.05 0
0.2 0.1 0
0.25 0.1 0
0.2 0.05 0.1
0.25 0.05 0.1
0.2 0.1 0.1
0.25 0.1 0.1
0.25 0.05 0
0.3 0.05 0
0.25 0.1 0
0.3 0.1 0
0.25 0.05 0.1
0.3 0.05 0.1
0.25 0.1 0.1
0.3 0.1 0.1
0.3 0.05 0
0.35 0.05 0
0.3 0.1 0
0.35 0.1 0
0.3 0.05 0.1
0.35 0.05 0.1
0.3 0.1 0.1
0.35 0.1 0.1
0.35 0.05 0
0.4 0.05 0
0.35 0.1 0
0.4 0.1 0
0.35 0.05 0.1
0.4 0.05 0.1
0.35 0.1 0.1
0.4 0.1 0.1
0.4 0.05 0
0.45 0.05 0
0.4 0.1 0
0.45 0.1 0
0.4 0.05 0.1
0.45 0.05 0.1
0.4 0.1 0.1
0.45 0.1 0.1
0.45 0.05 0
0.5 0.05 0
0.45 0.1 0
0.5 0.1 0
0.45 0.05 0.1
0.5 0.05 0.1
0.45 0.1 0.1
0.5 0.1 0.1
0.5 0.05 0
0.55 0.05 0
0.5 0.1 0
0.55 0.1 0
0.5 0.05 0.1
0.55 0.05 0.1
0.5 0.1 0.1
0.55 0.1 0.1
0.55 0.05 0
0.6 0.05 0
0.55 0.1 0
0.6 0.1 0
0.55 0.05 0.1
0.6 0.05 0.1
0.55 0.1 0.1
0.6 0.1 0.1
0.6 0.05 0
0.65 0.05 0
0.6 0.1 0
0.65 0.1 0
0.6 0.05 0.1
0.65 0.05 0.1
0.6 0.1 0.1
0.65 0.1 0.1
0.65 0.05 0
0.7 0.05 0
0.65 0.1 0
0.7 0.1 0
0.65 0.05 0.1
0.7 0.05 0.1
0.65 0.1 0.1
0.7 0.1 0.1
0.7 0.05 0
0.75 0.05 0
0.7 0.1 0
0.75 0.1 0
0.7 0.05 0.1
0.75 0.05 0.1
0.7 0.1 0.1
0.75 0.1 0.1
0.75 0.05 0
0.8 0.05 0
0.75 0.1 0
0.8 0.1 0
0.75 0.05 0.1
0.8 0.05 0.1
0.75 0.1 0.1
0.8 0.1 0.1
0.8 0.05 0
0.85 0.05 0
0.8 0.1 0
0.85 0.1 0
0.8 0.05 0.1
0.85 0.05 0.1
0.8 0.1 0.1
0.85 0.1 0.1
0.85 0.05 0
0.9 0.05 0
0.85 0.1 0
0.9 0.1 0
0.85 0.05 0.1
0.9 0.05 0.1
0.85 0.1 0.1
0.9 0.1 0.1
0.9 0.05 0
0.95 0.05 0
0.9 0.1 0
0.95 0.1 0
0.9 0.05 0.1
0.95 0.05 0.1
0.9 0.1 0.1
0.95 0.1 0.1
0.95 0.05 0
1 0.05 0
0.95 0.1 0
1 0.1 0
0.95 0.05 0.1
1 0.05 0.1
0.95 0.1 0.1
1 0.1 0.1
0 0.1 0
0.05 0.1 0
0 0.15 0
0.05 0.15 0
0 0.1 0.1
0.05 0.1 0.1
0 0.15 0.1
0.05 0.15 0.1
0.05 0.1 0
0.1 0.1 0
0.05 0.15 0
0.1 0.15 0
0.05 0.1 0.1
0.1 0.1 0.1
0.05 0.15 0.1
0.1 0.15 0.1
0.1 0.1 0
0.15 0.1 0
0.1 0.15 0
0.15 0.15 0
0.1 0.1 0.1
0.15 0.1 0.1
0.1 0.15 0.1
0.15 0.15 0.1
0.15 0.1 0
0.2 0.1 0
0.15 0.15 0
0.2 0.15 0
0.15 0.1 0.1
0.2 0.1 0.1
0.15 0.15 0.1
0.2 0.15 0.1
0.2 0.1 0
0.25 0.1 0
0.2 0.15 0
0.25 0.15 0
0.2 0.1 0.1
0.25 0.1 0.1
0.2 0.15 0.1
0.25 0.15 0.1
0.25 0.1 0
0.3 0.1 0
0.25 0.15 0
0.3 0.15 0
0.25 0.1 0.1
0.3 0.1 0.1
0.25 0.15 0.1
0.3 0.15 0.1
0.3 0.1 0
0.35 0.1 0
0.3 0.15 0
0.35 0.15 0
0.3 0.1 0.1
0.35 0.1 0.1
0.3 0.15 0.1
0.35 0.15 0.1
0.35 0.1 0
0.4 0.1 0
0.35 0.15 0
0.4 0.15 0
0.35 0.1 0.1
0.4 0.1 0.1
0.35 0.15 0.1
0.4 0.15 0.1
0.4 0.1 0
0.45 0.1 0
0.4 0.15 0
0.45 0.15 0
0.4 0.1 0.1
0.45 0.1 0.1
0.4 0.15 0.1
0.45 0.15 0.1
0.45 0.1 0
0.5 0.1 0
0.45 0.15 0
0.5 0.15 0
0.45 0.1 0.1
0.5 0.1 0.1
0.45 0.15 0.1
0.5 0.15 0.1
0.5 0.1 0
0.55 0.1 0
0.5 0.15 0
0.55 0.15 0
0.5 0.1 0.1
0.55 0.1 0.1
0.5 0.15 0.1
0.55 0.15 0.1
0.55 0.1 0
0.6 0.1 0
0.55 0.15 0
0.6 0.15 0
0.55 0.1 0.1
0.6 0.1 0.1
0.55 0.15 0.1
0.6 0.15 0.1
0.6 0.1 0
0.65 0.1 0
0.6 0.15 0
0.65 0.15 0
0.6 0.1 0.1
0.65 0.1 0.1
0.6 0.15 0.1
0.65 0.15 0.1
0.65 0.1 0
0.7 0.1 0
0.65 0.15 0
0.7 0.15 0
0.65 0.1 0.1
0.7 0.1 0.1
0.65 0.15 0.1
0.7 0.15 0.1
0.7 0.1 0
0.75 0.1 0
0.7 0.15 0
0.75 0.15 0
0.7 0.1 0.1
0.75 0.1 0.1
0.7 0.15 0.1
0.75 0.15 0.1
0.75 0.1 0
0.8 0.1 0
0.75 0.15 0
0.8 0.15 0
0.75 0.1 0.1
0.8 0.1 0.1
0.75 0.15 0.1
0.8 0.15 0.1
0.8 0.1 0
0.85 0.1 0
0.8 0.15 0
0.85 0.15 0
0.8 0.1 0.1
0.85 0.1 0.1
0.8 0.15 0.1
0.85 0.15 0.1
0.85 0.1 0
0.9 0.1 0
0.85 0.15 0
0.9 0.15 0
0.85 0.1 0.1
0.9 0.1 0.1
0.85 0.15 0.1
0.9 0.15 0.1
0.9 0.1 0
0.95 0.1 0
0.9 0.15 0
0.95 0.15 0
0.9 0.1 0.1
0.95 0.1 0.1
0.9 0.15 0.1
0.95 0.15 0.1
0.95 0.1 0
1 0.1 0
0.95 0.15 0
1 0.15 0
0.95 0.1 0.1
1 0.1 0.1
0.95 0.15 0.1
1 0.15 0.1
0 0.15 0
0.05 0.15 0
0 0.2 0
0.05 0.2 0
0 0.15 0.1
0.05 0.15 0.1
0 0.2 0.1
0.05 0.2 0.1
0.05 0.15 0
0.1 0.15 0
0.05 0.2 0
0.1 0.2 0
0.05 0.15 0.1
0.1 0.15 0.1
0.05 0.2 0.1
0.1 0.2 0.1
0.1 0.15 0
0.15 0.15 0
0.1 0.2 0
0.15 0.2 0
0.1 0.15 0.1
0.15 0.15 0.1
0.1 0.2 0.1
0.15 0.2 0.1
0.15 0.15 0
0.2 0.15 0
0.15 0.2 0
0.2 0.2 0
0.15 0.15 0.1
0.2 0.15 0.1
0.15 0.2 0.1
0.2 0.2 0.1
0.2 0.15 0
0.25 0.15 0
0.2 0.2 0
0.25 0.2 0
0.2 0.15 0.1
0.25 0.15 0.1
0.2 0.2 0.1
0.25 0.2 0.1
0.25 0.15 0
0.3 0.15 0
0.25 0.2 0
0.3 0.2 0
0.25 0.15 0.1
0.3 0.15 0.1
0.25 0.2 0.1
0.3 0.2 0.1
0.3 0.15 0
0.35 0.15 0
0.3 0.2 0
0.35 0.2 0
0.3 0.15 0.1
0.35 0.15 0.1
0.3 0.2 0.1
0.35 0.2 0.1
0.35 0.15 0
0.4 0.15 0
0.35 0.2 0
0.4 0.2 0
0.35 0.15 0.1
0.4 0.15 0.1
0.35 0.2 0.1
0.4 0.2 0.1
0.4 0.15 0
0.45 0.15 0
0.4 0.2 0
0.45 0.2 0
0.4 0.15 0.1
0.45 0.15 0.1
0.4 0.2 0.1
0.45 0.2 0.1
0.45 0.15 0
0.5 0.15 0
0.45 0.2 0
0.5 0.2 0
0.45 0.15 0.1
0.5 0.15 0.1
0.45 0.2 0.1
0.5 0.2 0.1
0.5 0.15 0
0.55 0.15 0
0.5 0.2 0
0.55 0.2 0
0.5 0.15 0.1
0.55 0.15 0.1
0.5 0.2 0.1
0.55 0.2 0.1
0.55 0.15 0
0.6 0.15 0
0.55 0.2 0
0.6 0.2 0
0.55 0.15 0.1
0.6 0.15 0.1
0.55 0.2 0.1
0.6 0.2 0.1
0.6 0.15 0
0.65 0.15 0
0.6 0.2 0
0.65 0.2 0
0.6 0.15 0.1
0.65 0.15 0.1
0.6 0.2 0.1
0.65 0.2 0.1
0.65 0.15 0
0.7 0.15 0
0.65 0.2 0
0.7 0.2 0
0.65 0.15 0.1
0.7 0.15 0.1
0.65 0.2 0.1
0.7 0.2 0.1
0.7 0.15 0
0.75 0.15 0
0.7 0.2 0
0.75 0.2 0
0.7 0.15 0.1
0.75 0.15 0.1
0.7 0.2 0.1
0.75 0.2 0.1
0.75 0.15 0
0.8 0.15 0
0.75 0.2 0
0.8 0.2 0
0.75 0.15 0.1
0.8 0.15 0.1
0.75 0.2 0.1
0.8 0.2 0.1
0.8 0.15 0
0.85 0.15 0
0.8 0.2 0
0.85 0.2 0
0.8 0.15 0.1
0.85 0.15 0.1
0.8 0.2 0.1
0.85 0.2 0.1
0.85 0.15 0
0.9 0.15 0
0.85 0.2 0
0.9 0.2 0
0.85 0.15 0.1
0.9 0.15 0.1
0.85 0.2 0.1
0.9 0.2 0.1
0.9 0.15 0
0.95 0.15 0
0.9 0.2 0
0.95 0.2 0
0.9 0.15 0.1
0.95 0.15 0.1
0.9 0.2 0.1
0.95 0.2 0.1
0.95 0.15 0
1 0.15 0
0.95 0.2 0
1 0.2 0
0.95 0.15 0.1
1 0.15 0.1
0.95 0.2 0.1
1 0.2 0.1
0 0.2 0
0.05 0.2 0
0 0.25 0
0.05 0.25 0
0 0.2 0.1
0.05 0.2 0.1
0 0.25 0.1
0.05 0.25 0.1
0.05 0.2 0
0.1 0.2 0
0.05 0.25 0
0.1 0.25 0
0.05 0.2 0.1
0.1 0.2 0.1
0.05 0.25 0.1
0.1 0.25 0.1
0.1 0.2 0
0.15 0.2 0
0.1 0.25 0
0.15 0.25 0
0.1 0.2 0.1
0.15 0.2 0.1
0.1 0.25 0.1
0.15 0.25 0.1
0.15 0.2 0
0.2 0.2 0
0.15 0.25 0
0.2 0.25 0
0.15 0.2 0.1
0.2 0.2 0.1
0.15 0.25 0.1
0.2 0.25 0.1
0.2 0.2 0
0.25 0.2 0
0.2 0.25 0
0.25 0.25 0
0.2 0.2 0.1
0.25 0.2 0.1
0.2 0.25 0.1
0.25 0.25 0.1
0.25 0.2 0
0.3 0.2 0
0.25 0.25 0
0.3 0.25 0
0.25 0.2 0.1
0.3 0.2 0.1
0.25 0.25 0.1
0.3 0.25 0.1
0.3 0.2 0
0.35 0.2 0
0.3 0.25 0
0.35 0.25 0
0.3 0.2 0.1
0.35 0.2 0.1
0.3 0.25 0.1
0.35 0.25 0.1
0.35 0.2 0
0.4 0.2 0
0.35 0.25 0
0.4 0.25 0
0.35 0.2 0.1
0.4 0.2 0.1
0.35 0.25 0.1
0.4 0.25 0.1
0.4 0.2 0
0.45 0.2 0
0.4 0.25 0
0.45 0.25 0
0.4 0.2 0.1
0.45 0.2 0.1
0.4 0.25 0.1
0.45 0.25 0.1
0.45 0.2 0
0.5 0.2 0
0.45 0.25 0
0.5 0.25 0
0.45 0.2 0.1
0.5 0.2 0.1
0.45 0.25 0.1
0.5 0.25 0.1
0.5 0.2 0
0.55 0.2 0
0.5 0.25 0
0.55 0.25 0
0.5 0.2 0.1
0.55 0.2 0.1
0.5 0.25 0.1
0.55 0.25 0.1
0.55 0.2 0
0.6 0.2 0
0.55 0.25 0
0.6 0.25 0
0.55 0.2 0.1
0.6 0.2 0.1
0.55 0.25 0.1
0.6 0.25 0.1
0.6 0.2 0
0.65 0.2 0
0.6 0.25 0
0.65 0.25 0
0.6 0.2 0.1
0.65 0.2 0.1
0.6 0.25 0.1
0.65 0.25 0.1
0.65 0.2 0
0.7 0.2 0
0.65 0.25 0
0.7 0.25 0
0.65 0.2 0.1
0.7 0.2 0.1
0.65 0.25 0.1
0.7 0.25 0.1
0.7 0.2 0
0.75 0.2 0
0.7 0.25 0
0.75 0.25 0
0.7 0.2 0.1
0.75 0.2 0.1
0.7 0.25 0.1
0.75 0.25 0.1
0.75 0.2 0
0.8 0.2 0
0.75 0.25 0
0.8 0.25 0
0.75 0.2 0.1
0.8 0.2 0.1
0.75 0.25 0.1
0.8 0.25 0.1
0.8 0.2 0
0.85 0.2 0
0.8 0.25 0
0.85 0.25 0
0.8 0.2 0.1
0.85 0.2 0.1
0.8 0.25 0.1
0.85 0.25 0.1
0.85 0.2 0
0.9 0.2 0
0.85 0.25 0
0.9 0.25 0
0.85 0.2 0.1
0.9 0.2 0.1
0.85 0.25 0.1
0.9 0.25 0.1
0.9 0.2 0
0.95 0.2 0
0.9 0.25 0
0.95 0.25 0
0.9 0.2 0.1
0.95 0.2 0.1
0.9 0.25 0.1
0.95 0.25 0.1
0.95 0.2 0
1 0.2 0
0.95 0.25 0
1 0.25 0
0.95 0.2 0.1
1 0.2 0.1
0.95 0.25 0.1
1 0.25 0.1
0 0.25 0
0.05 0.25 0
0 0.3 0
0.05 0.3 0
0 0.25 0.1
0.05 0.25 0.1
0 0.3 0.1
0.05 0.3 0.1
0.05 0.25 0
0.1 0.25 0
0.05 0.3 0
0.1 0.3 0
0.05 0.25 0.1
0.1 0.25 0.1
0.05 0.3 0.1
0.1 0.3 0.1
0.1 0.25 0
0.15 0.25 0
0.1 0.3 0
0.15 0.3 0
0.1 0.25 0.1
0.15 0.25 0.1
0.1 0.3 0.1
0.15 0.3 0.1
0.15 0.25 0
0.2 0.25 0
0.15 0.3 0
0.2 0.3 0
0.15 0.25 0.1
0.2 0.25 0.1
0.15 0.3 0.1
0.2 0.3 0.1
0.2 0.25 0
0.25 0.25 0
0.2 0.3 0
0.25 0.3 0
0.2 0.25 0.1
0.25 0.25 0.1
0.2 0.3 0.1
0.25 0.3 0.1
0.25 0.25 0
[...]
POINT_DATA 3200
SCALARS D double 1
LOOKUP_TABLE default
300 342.315 300 257.905 300 257.918 300 342.328 342.315 216.884 257.905 383.625 257.918 383.6 342.328 216.859 216.884 422.851 383.625 177.884 383.6 177.921 216.859 422.887 422.851 142 177.884 459.159 177.921 459.112 422.887 141.953 142 491.503 459.159 109.962 459.112 110.018 141.953 491.56 491.503 82.7757 109.962 519.304 110.018 519.24 491.56 82.7112 82.7757 541.651 519.304 60.885 519.24 60.9561 82.7112 541.722 541.651 45.1091 60.885 558.274 60.9561 558.198 541.722 45.0333 45.1091 568.486 558.274 35.559 558.198 35.6377 45.0333 568.565 568.486 32.7874 35.559 572.354 35.6377 572.275 568.565 32.7077 32.7874 569.483 572.354 36.5621 572.275 36.6408 32.7077 569.562 569.483 47.1151 36.5621 560.268 36.6408 560.192 569.562 47.0393 47.1151 544.643 560.268 63.8933 560.192 63.9643 47.0393 544.714 544.643 86.7854 63.8933 523.294 63.9643 523.23 544.714 86.7209 86.7854 496.493 523.294 114.972 523.23 115.028 86.7209 496.549 496.493 148.009 114.972 465.149 115.028 465.102 496.549 147.962 148.009 429.843 465.149 184.893 465.102 184.929 147.962 429.879 429.843 224.89 184.893 391.619 184.929 391.595 429.879 224.865 224.89 351.312 391.619 266.908 391.595 266.921 224.865 351.325 351.312 310 266.908 310 266.921 310 351.325 310 300 257.905 300 342.365 300 342.328 300 257.868 257.905 383.625 342.365 216.786 342.328 216.859 257.868 383.698 383.625 177.884 216.786 422.995 216.859 422.887 383.698 177.777 177.884 459.159 422.995 141.813 422.887 141.953 177.777 459.298 459.159 109.962 141.813 491.727 141.953 491.56 459.298 109.794 109.962 519.304 491.727 82.5193 491.56 82.7112 109.794 519.496 519.304 60.885 82.5193 541.933 82.7112 541.722 519.496 60.6737 60.885 558.274 541.933 44.8077 541.722 45.0333 60.6737 558.499 558.274 35.559 44.8077 568.799 45.0333 568.565 558.499 35.3247 35.559 572.354 568.799 32.4705 568.565 32.7077 35.3247 572.591 572.354 36.5621 32.4705 569.796 32.7077 569.562 572.591 36.3278 36.5621 560.268 569.796 46.8137 569.562 47.0393 36.3278 560.493 560.268 63.8933 46.8137 544.925 47.0393 544.714 560.493 63.6819 63.8933 523.294 544.925 86.5289 544.714 86.7209 63.6819 523.486 523.294 114.972 86.5289 496.717 86.7209 496.549 523.486 114.804 114.972 465.149 496.717 147.823 496.549 147.962 114.804 465.289 465.149 184.893 147.823 429.986 147.962 429.879 465.289 184.785 184.893 391.619 429.986 224.792 429.879 224.865 184.785 391.692 391.619 266.908 224.792 351.362 224.865 351.325 391.692 266.871 266.908 310 351.362 310 351.325 310 266.871 310 300 342.365 300 257.807 300 257.868 300 342.426 342.365 216.786 257.807 383.819 257.868 383.698 342.426 216.666 216.786 422.995 383.819 177.6 383.698 177.777 216.666 423.171 422.995 141.813 177.6 459.527 177.777 459.298 423.171 141.585 141.813 491.727 459.527 109.519 459.298 109.794 141.585 492.002 491.727 82.5193 109.519 519.811 109.794 519.496 492.002 82.2047 82.5193 541.933 519.811 60.3272 519.496 60.6737 82.2047 542.28 541.933 44.8077 60.3272 558.869 60.6737 558.499 542.28 44.4379 44.8077 568.799 558.869 34.9406 558.499 35.3247 44.4379 569.183 568.799 32.4705 34.9406 572.98 35.3247 572.591 569.183 32.0816 32.4705 569.796 572.98 35.9437 572.591 36.3278 32.0816 570.18 569.796 46.8137 35.9437 560.863 36.3278 560.493 570.18 46.4438 46.8137 544.925 560.863 63.3354 560.493 63.6819 46.4438 545.272 544.925 86.5289 63.3354 523.801 63.6819 523.486 545.272 86.2143 86.5289 496.717 523.801 114.529 523.486 114.804 86.2143 496.992 496.717 147.823 114.529 465.517 114.804 465.289 496.992 147.594 147.823 429.986 465.517 184.608 465.289 184.785 147.594 430.163 429.986 224.792 184.608 391.813 184.785 391.692 430.163 224.672 224.792 351.362 391.813 266.811 391.692 266.871 224.672 351.423 351.362 310 266.811 310 266.871 310 351.423 310 300 257.807 300 342.509 300 342.426 300 257.724 257.807 383.819 342.509 216.502 342.426 216.666 257.724 383.983 383.819 177.6 216.502 423.412 216.666 423.171 383.983 177.359 177.6 459.527 423.412 141.273 423.171 141.585 177.359 459.839 459.527 109.519 141.273 492.378 141.585 492.002 459.839 109.144 109.519 519.811 492.378 81.7752 492.002 82.2047 109.144 520.24 519.811 60.3272 81.7752 542.753 82.2047 542.28 520.24 59.8541 60.3272 558.869 542.753 43.9329 542.28 44.4379 59.8541 559.374 558.869 34.9406 43.9329 569.708 44.4379 569.183 559.374 34.4162 34.9406 572.98 569.708 31.5507 569.183 32.0816 34.4162 573.511 572.98 35.9437 31.5507 570.704 32.0816 570.18 573.511 35.4193 35.9437 560.863 570.704 45.9389 570.18 46.4438 35.4193 561.368 560.863 63.3354 45.9389 545.745 46.4438 545.272 561.368 62.8623 63.3354 523.801 545.745 85.7848 545.272 86.2143 62.8623 524.231 523.801 114.529 85.7848 497.368 86.2143 496.992 524.231 114.154 114.529 465.517 497.368 147.282 496.992 147.594 114.154 465.829 465.517 184.608 147.282 430.404 147.594 430.163 465.829 184.367 184.608 391.813 430.404 224.508 430.163 224.672 184.367 391.977 391.813 266.811 224.508 351.506 224.672 351.423 391.977 266.727 266.811 310 351.506 310 351.423 310 266.727 310 300 342.509 300 257.621 300 257.724 300 342.612 342.509 216.502 257.621 384.187 257.724 383.983 342.612 216.298 216.502 423.412 384.187 177.06 383.983 177.359 216.298 423.712 423.412 141.273 177.06 460.227 177.359 459.839 423.712 140.885 141.273 492.378 460.227 108.677 459.839 109.144 140.885 492.844 492.378 81.7752 108.677 520.774 109.144 520.24 492.844 81.2413 81.7752 542.753 520.774 59.2662 520.24 59.8541 81.2413 543.341 542.753 43.9329 59.2662 560.002 59.8541 559.374 543.341 43.3053 43.9329 569.708 560.002 33.7644 559.374 34.4162 43.3053 570.359 569.708 31.5507 33.7644 574.171 34.4162 573.511 570.359 30.8908 31.5507 570.704 574.171 34.7675 573.511 35.4193 30.8908 571.356 570.704 45.9389 34.7675 561.996 35.4193 561.368 571.356 45.3113 45.9389 545.745 561.996 62.2743 561.368 62.8623 45.3113 546.333 545.745 85.7848 62.2743 524.764 62.8623 524.231 546.333 85.2509 85.7848 497.368 524.764 113.687 524.231 114.154 85.2509 497.834 497.368 147.282 113.687 466.217 114.154 465.829 497.834 146.894 147.282 430.404 466.217 184.068 465.829 184.367 146.894 430.704 430.404 224.508 184.068 392.181 184.367 391.977 430.704 224.304 224.508 351.506 392.181 266.624 391.977 266.727 224.304 351.609 351.506 310 266.624 310 266.727 310 351.609 310 300 257.621 300 342.733 300 342.612 300 257.5 257.621 384.187 342.733 216.059 342.612 216.298 257.5 384.425 384.187 177.06 216.059 424.063 216.298 423.712 384.425 176.709 177.06 460.227 424.063 140.431 423.712 140.885 176.709 460.681 460.227 108.677 140.431 493.391 140.885 492.844 460.681 108.131 108.677 520.774 493.391 80.6162 492.844 81.2413 108.131 521.399 520.774 59.2662 80.6162 544.029 81.2413 543.341 521.399 58.5777 59.2662 560.002 544.029 42.5705 543.341 43.3053 58.5777 560.737 560.002 33.7644 42.5705 571.122 43.3053 570.359 560.737 33.0012 33.7644 574.171 571.122 30.1181 570.359 30.8908 33.0012 574.944 574.171 34.7675 30.1181 572.119 30.8908 571.356 574.944 34.0043 34.7675 561.996 572.119 44.5764 571.356 45.3113 34.0043 562.731 561.996 62.2743 44.5764 547.021 45.3113 546.333 562.731 61.5859 62.2743 524.764 547.021 84.6258 546.333 85.2509 61.5859 525.39 524.764 113.687 84.6258 498.381 85.2509 497.834 525.39 113.141 113.687 466.217 498.381 146.44 497.834 146.894 113.141 466.671 466.217 184.068 146.44 431.055 146.894 430.704 466.671 183.717 184.068 392.181 431.055 224.065 430.704 224.304 183.717 392.419 392.181 266.624 224.065 351.73 224.304 351.609 392.419 266.503 266.624 310 351.73 310 351.609 310 266.503 310 300 342.733 300 257.365 300 257.5 300 342.868 342.733 216.059 257.365 384.693 257.5 384.425 342.868 215.791 216.059 424.063 384.693 176.315 384.425 176.709 215.791 424.456 424.063 140.431 176.315 461.19 176.709 460.681 424.456 139.921 140.431 493.391 461.19 107.518 460.681 108.131 139.921 494.003 493.391 80.6162 107.518 522.1 108.131 521.399 494.003 79.9153 80.6162 544.029 522.1 57.8058 521.399 58.5777 79.9153 544.801 544.029 42.5705 57.8058 561.56 58.5777 560.737 544.801 41.7465 42.5705 571.122 561.56 32.1455 560.737 33.0012 41.7465 571.978 571.122 30.1181 32.1455 575.81 33.0012 574.944 571.978 29.2517 30.1181 572.119 575.81 33.1486 574.944 34.0043 29.2517 572.975 572.119 44.5764 33.1486 563.555 34.0043 562.731 572.975 43.7524 44.5764 547.021 563.555 60.8139 562.731 61.5859 43.7524 547.793 547.021 84.6258 60.8139 526.09 61.5859 525.39 547.793 83.9248 84.6258 498.381 526.09 112.528 525.39 113.141 83.9248 498.993 498.381 146.44 112.528 467.181 113.141 466.671 498.993 145.931 146.44 431.055 467.181 183.324 466.671 183.717 145.931 431.448 431.055 224.065 183.324 392.687 183.717 392.419 431.448 223.797 224.065 351.73 392.687 266.368 392.419 266.503 223.797 351.865 351.73 310 266.368 310 266.503 310 351.865 310 300 257.365 300 343.015 300 342.868 300 257.218 257.365 384.693 343.015 215.501 342.868 215.791 257.218 384.983 384.693 176.315 215.501 424.882 215.791 424.456 384.983 175.889 176.315 461.19 424.882 139.37 424.456 139.921 175.889 461.742 461.19 107.518 139.37 494.667 139.921 494.003 461.742 106.854 107.518 522.1 494.667 79.1558 494.003 79.9153 106.854 522.859 522.1 57.8058 79.1558 545.638 79.9153 544.801 522.859 56.9693 57.8058 561.56 545.638 40.8537 544.801 41.7465 56.9693 562.453 561.56 32.1455 40.8537 572.905 41.7465 571.978 562.453 31.2183 32.1455 575.81 572.905 28.3129 571.978 29.2517 31.2183 576.749 575.81 33.1486 28.3129 573.902 29.2517 572.975 576.749 32.2214 33.1486 563.555 573.902 42.8596 572.975 43.7524 32.2214 564.447 563.555 60.8139 42.8596 548.63 43.7524 547.793 564.447 59.9774 60.8139 526.09 548.63 83.1654 547.793 83.9248 59.9774 526.85 526.09 112.528 83.1654 499.657 83.9248 498.993 526.85 111.864 112.528 467.181 499.657 145.379 498.993 145.931 111.864 467.732 467.181 183.324 145.379 431.874 145.931 431.448 467.732 182.897 183.324 392.687 431.874 223.507 431.448 223.797 182.897 392.977 392.687 266.368 223.507 352.012 223.797 351.865 392.977 266.221 266.368 310 352.012 310 351.865 310 266.221 310 300 343.015 300 257.063 300 257.218 300 343.17 343.015 215.501 257.063 385.288 257.218 384.983 343.17 215.196 215.501 424.882 385.288 175.441 384.983 175.889 215.196 425.331 424.882 139.37 175.441 462.323 175.889 461.742 425.331 138.789 139.37 494.667 462.323 106.156 461.742 106.854 138.789 495.366 494.667 79.1558 106.156 523.659 106.854 522.859 495.366 78.3565 79.1558 545.638 523.659 56.089 522.859 56.9693 78.3565 546.518 545.638 40.8537 56.089 563.393 56.9693 562.453 546.518 39.914 40.8537 572.905 563.393 30.2425 562.453 31.2183 39.914 573.881 572.905 28.3129 30.2425 577.737 31.2183 576.749 573.881 27.3249 28.3129 573.902 577.737 31.2455 576.749 32.2214 27.3249 574.878 573.902 42.8596 31.2455 565.387 32.2214 564.447 574.878 41.9199 42.8596 548.63 565.387 59.0971 564.447 59.9774 41.9199 549.51 548.63 83.1654 59.0971 527.649 59.9774 526.85 549.51 82.366 83.1654 499.657 527.649 111.166 526.85 111.864 82.366 500.356 499.657 145.379 111.166 468.313 111.864 467.732 500.356 144.798 145.379 431.874 468.313 182.449 467.732 182.897 144.798 432.323 431.874 223.507 182.449 393.283 182.897 392.977 432.323 223.202 223.507 352.012 393.283 266.066 392.977 266.221 223.202 352.167 352.012 310 266.066 310 266.221 310 352.167 310 300 257.063 300 343.328 300 343.17 300 256.905 257.063 385.288 343.328 214.883 343.17 215.196 256.905 385.601 385.288 175.441 214.883 425.791 215.196 425.331 385.601 174.981 175.441 462.323 425.791 138.194 425.331 138.789 174.981 462.918 462.323 106.156 138.194 496.082 138.789 495.366 462.918 105.439 106.156 523.659 496.082 77.537 495.366 78.3565 105.439 524.478 523.659 56.089 77.537 547.42 78.3565 546.518 524.478 55.1865 56.089 563.393 547.42 38.9507 546.518 39.914 55.1865 564.356 563.393 30.2425 38.9507 574.882 39.914 573.881 564.356 29.242 30.2425 577.737 574.882 26.312 573.881 27.3249 29.242 578.75 577.737 31.2455 26.312 575.879 27.3249 574.878 578.75 30.2451 31.2455 565.387 575.879 40.9565 574.878 41.9199 30.2451 566.35 565.387 59.0971 40.9565 550.412 41.9199 549.51 566.35 58.1945 59.0971 527.649 550.412 81.5465 549.51 82.366 58.1945 528.469 527.649 111.166 81.5465 501.072 82.366 500.356 528.469 110.449 111.166 468.313 501.072 144.203 500.356 144.798 110.449 468.909 468.313 182.449 144.203 432.783 144.798 432.323 468.909 181.989 182.449 393.283 432.783 222.889 432.323 223.202 181.989 393.596 393.283 266.066 222.889 352.325 223.202 352.167 393.596 265.908 266.066 310 352.325 310 352.167 310 265.908 310 300 343.328 300 256.746 300 256.905 300 343.487 343.328 214.883 256.746 385.914 256.905 385.601 343.487 214.57 214.883 425.791 385.914 174.521 385.601 174.981 214.57 426.25 425.791 138.194 174.521 463.513 174.981 462.918 426.25 137.598 138.194 496.082 463.513 104.723 462.918 105.439 137.598 496.798 496.082 77.537 104.723 525.298 105.439 524.478 496.798 76.7176 77.537 547.42 525.298 54.284 524.478 55.1865 76.7176 548.323 547.42 38.9507 54.284 565.32 55.1865 564.356 548.323 37.9873 38.9507 574.882 565.32 28.2415 564.356 29.242 37.9873 575.882 574.882 26.312 28.2415 579.763 29.242 578.75 575.882 25.299 26.312 575.879 579.763 29.2446 578.75 30.2451 25.299 576.879 575.879 40.9565 29.2446 567.314 30.2451 566.35 576.879 39.9931 40.9565 550.412 567.314 57.292 566.35 58.1945 39.9931 551.315 550.412 81.5465 57.292 529.288 58.1945 528.469 551.315 80.727 81.5465 501.072 529.288 109.733 528.469 110.449 80.727 501.788 501.072 144.203 109.733 469.504 110.449 468.909 501.788 143.608 144.203 432.783 469.504 181.529 468.909 181.989 143.608 433.242 432.783 222.889 181.529 393.909 181.989 393.596 433.242 222.576 222.889 352.325 393.909 265.749 393.596 265.908 222.576 352.484 352.325 310 265.749 310 265.908 310 352.484 310 300 256.746 300 343.641 300 343.487 300 256.592 256.746 385.914 343.641 214.265 343.487 214.57 256.592 386.22 385.914 174.521 214.265 426.699 214.57 426.25 386.22 174.072 174.521 463.513 426.699 137.018 426.25 137.598 174.072 464.094 463.513 104.723 137.018 497.497 137.598 496.798 464.094 104.024 104.723 525.298 497.497 75.9183 496.798 76.7176 104.024 526.097 525.298 54.284 75.9183 549.203 76.7176 548.323 526.097 53.4037 54.284 565.32 549.203 37.0477 548.323 37.9873 53.4037 566.259 565.32 28.2415 37.0477 576.858 37.9873 575.882 566.259 27.2657 28.2415 579.763 576.858 24.311 575.882 25.299 27.2657 580.751 579.763 29.2446 24.311 577.855 25.299 576.879 580.751 28.2688 29.2446 567.314 577.855 39.0535 576.879 39.9931 28.2688 568.253 567.314 57.292 39.0535 552.195 39.9931 551.315 568.253 56.4117 57.292 529.288 552.195 79.9277 551.315 80.727 56.4117 530.088 529.288 109.733 79.9277 502.487 80.727 501.788 530.088 109.034 109.733 469.504 502.487 143.027 501.788 143.608 109.034 470.085 469.504 181.529 143.027 433.691 143.608 433.242 470.085 181.08 181.529 393.909 433.691 222.27 433.242 222.576 181.08 394.214 393.909 265.749 222.27 352.638 222.576 352.484 394.214 265.595 265.749 310 352.638 310 352.484 310 265.595 310 300 343.641 300 256.445 300 256.592 300 343.788 343.641 214.265 256.445 386.51 256.592 386.22 343.788 213.974 214.265 426.699 386.51 173.646 386.22 174.072 213.974 427.125 426.699 137.018 173.646 464.646 174.072 464.094 427.125 136.466 137.018 497.497 464.646 103.361 464.094 104.024 136.466 498.161 497.497 75.9183 103.361 526.856 104.024 526.097 498.161 75.1589 75.9183 549.203 526.856 52.5673 526.097 53.4037 75.1589 550.04 549.203 37.0477 52.5673 567.152 53.4037 566.259 550.04 36.155 37.0477 576.858 567.152 26.3386 566.259 27.2657 36.155 577.785 576.858 24.311 26.3386 581.69 27.2657 580.751 577.785 23.3723 24.311 577.855 581.69 27.3416 580.751 28.2688 23.3723 578.782 577.855 39.0535 27.3416 569.146 28.2688 568.253 578.782 38.1607 39.0535 552.195 569.146 55.5753 568.253 56.4117 38.1607 553.032 552.195 79.9277 55.5753 530.847 56.4117 530.088 553.032 79.1682 79.9277 502.487 530.847 108.371 530.088 109.034 79.1682 503.151 502.487 143.027 108.371 470.636 109.034 470.085 503.151 142.475 143.027 433.691 470.636 180.654 470.085 181.08 142.475 434.117 433.691 222.27 180.654 394.504 181.08 394.214 434.117 221.98 222.27 352.638 394.504 265.448 394.214 265.595 221.98 352.785 352.638 310 265.448 310 265.595 310 352.785 310 300 256.445 300 343.924 300 343.788 300 256.309 256.445 386.51 343.924 213.707 343.788 213.974 256.309 386.777 386.51 173.646 213.707 427.518 213.974 427.125 386.777 173.253 173.646 464.646 427.518 135.957 427.125 136.466 173.253 465.155 464.646 103.361 135.957 498.773 136.466 498.161 465.155 102.748 103.361 526.856 498.773 74.458 498.161 75.1589 102.748 527.557 526.856 52.5673 74.458 550.812 75.1589 550.04 527.557 51.7954 52.5673 567.152 550.812 35.3311 550.04 36.155 51.7954 567.976 567.152 26.3386 35.3311 578.641 36.155 577.785 567.976 25.4829 26.3386 581.69 578.641 22.506 577.785 23.3723 25.4829 582.556 581.69 27.3416 22.506 579.638 23.3723 578.782 582.556 26.486 27.3416 569.146 579.638 37.3368 578.782 38.1607 26.486 569.97 569.146 55.5753 37.3368 553.804 38.1607 553.032 569.97 54.8034 55.5753 530.847 553.804 78.4674 553.032 79.1682 54.8034 531.548 530.847 108.371 78.4674 503.763 79.1682 503.151 531.548 107.758 108.371 470.636 503.763 141.966 503.151 142.475 107.758 471.146 470.636 180.654 141.966 434.51 142.475 434.117 471.146 180.261 180.654 394.504 434.51 221.713 434.117 221.98 180.261 394.772 394.504 265.448 221.713 352.921 221.98 352.785 394.772 265.313 265.448 310 352.921 310 352.785 310 265.313 310 300 343.924 300 256.189 300 256.309 300 344.044 343.924 213.707 256.189 387.016 256.309 386.777 344.044 213.468 213.707 427.518 387.016 172.902 386.777 173.253 213.468 427.869 427.518 135.957 172.902 465.609 173.253 465.155 427.869 135.502 135.957 498.773 465.609 102.202 465.155 102.748 135.502 499.319 498.773 74.458 102.202 528.182 102.748 527.557 499.319 73.833 74.458 550.812 528.182 51.1071 527.557 51.7954 73.833 551.5 550.812 35.3311 51.1071 568.711 51.7954 567.976 551.5 34.5963 35.3311 578.641 568.711 24.7199 567.976 25.4829 34.5963 579.404 578.641 22.506 24.7199 583.329 25.4829 582.556 579.404 21.7334 22.506 579.638 583.329 25.7229 582.556 26.486 21.7334 580.401 579.638 37.3368 25.7229 570.705 26.486 569.97 580.401 36.602 37.3368 553.804 570.705 54.115 569.97 54.8034 36.602 554.492 553.804 78.4674 54.115 532.173 54.8034 531.548 554.492 77.8423 78.4674 503.763 532.173 107.212 531.548 107.758 77.8423 504.31 503.763 141.966 107.212 471.6 107.758 471.146 504.31 141.512 141.966 434.51 471.6 179.91 471.146 180.261 141.512 434.861 434.51 221.713 179.91 395.01 180.261 394.772 434.861 221.474 221.713 352.921 395.01 265.192 394.772 265.313 221.474 353.041 352.921 310 265.192 310 265.313 310 353.041 310 300 256.189 300 344.148 300 344.044 300 256.085 256.189 387.016 344.148 213.264 344.044 213.468 256.085 387.22 387.016 172.902 213.264 428.169 213.468 427.869 387.22 172.603 172.902 465.609 428.169 135.115 427.869 135.502 172.603 465.997 465.609 102.202 135.115 499.786 135.502 499.319 465.997 101.735 102.202 528.182 499.786 73.2992 499.319 73.833 101.735 528.716 528.182 51.1071 73.2992 552.088 73.833 551.5 528.716 50.5191 51.1071 568.711 552.088 33.9687 551.5 34.5963 50.5191 569.338 568.711 24.7199 33.9687 580.056 34.5963 579.404 569.338 24.0681 24.7199 583.329 580.056 21.0736 579.404 21.7334 24.0681 583.988 583.329 25.7229 21.0736 581.053 21.7334 580.401 583.988 25.0711 25.7229 570.705 581.053 35.9745 580.401 36.602 25.0711 571.333 570.705 54.115 35.9745 555.08 36.602 554.492 571.333 53.527 54.115 532.173 555.08 77.3085 554.492 77.8423 53.527 532.707 532.173 107.212 77.3085 504.776 77.8423 504.31 532.707 106.745 107.212 471.6 504.776 141.124 504.31 141.512 106.745 471.988 471.6 179.91 141.124 435.161 141.512 434.861 471.988 179.611 179.91 395.01 435.161 221.27 434.861 221.474 179.611 395.214 395.01 265.192 221.27 353.145 221.474 353.041 395.214 265.088 265.192 310 353.145 310 353.041 310 265.088 310 300 344.148 300 256.002 300 256.085 300 344.231 344.148 213.264 256.002 387.384 256.085 387.22 344.231 213.1 213.264 428.169 387.384 172.362 387.22 172.603 213.1 428.41 428.169 135.115 172.362 466.309 172.603 465.997 428.41 134.803 135.115 499.786 466.309 101.36 465